# ODT 1.0
# Table Start
# Title: (no title)
#
## Generated by magnum.DataTableStepHandler.
## Number of columns: 6
#
# Columns:   {time}                    {step size}               {average magn. x}         {average magn. y}         {average magn. z}         {wall clock time}         
# Units:     {s}                       {s}                       {A/m}                     {A/m}                     {A/m}                     {s}                       
0	1e-13	-777637.0990044771	92017.78790812907	-16.273787526126224	0.006	
1.0437322628415058e-11	5.473673951853235e-13	-777648.002738019	91986.40769052209	-25.79392602802806	0.097	
2.1400428297492974e-11	5.479852192005066e-13	-777663.9896065237	91939.92179856723	-33.43587158411362	0.188	
3.235661933042034e-11	5.473181125903784e-13	-777683.2009796464	91884.03029384388	-38.00241139690687	0.279	
4.3299693482605906e-11	5.468366355249509e-13	-777703.9623229027	91823.99883320233	-39.114946707102064	0.370	
5.418926241584368e-11	5.409250941912222e-13	-777724.4437453803	91765.49862396743	-36.765434070901016	0.461	
6.506020885581314e-11	5.386906044976306e-13	-777743.0228463153	91713.44261450124	-31.276612748599174	0.552	
7.578630004375222e-11	5.0554053560955e-13	-777758.072628368	91672.53419785149	-23.345573992911792	0.643	
8.547293739256668e-11	4.736735084385704e-13	-777767.9056169204	91647.11084854264	-14.7079873929984	0.733	
9.429883661562519e-11	4.183745808701689e-13	-777773.2248336596	91634.68451473853	-6.2041094979228655	0.824	
1.019453657499434e-10	3.6306204204038255e-13	-777774.814401635	91632.51104319573	1.2518196802693802	0.916	
1.0943067426310262e-10	4.007785006266087e-13	-777773.60804348	91637.99302924513	8.322642651932004	1.006	
1.1748740069334625e-10	4.2630885512136953e-13	-777769.3450038849	91651.8254138603	15.379939788571146	1.097	
1.263446140039479e-10	4.414716323322696e-13	-777761.3919312583	91675.52099756352	22.13199584433592	1.187	
1.3552203002760768e-10	4.618886084975014e-13	-777750.0511442904	91707.85494307842	27.680096526601695	1.278	
1.4475006028878018e-10	4.3282976763063884e-13	-777736.1816741315	91746.2734524224	31.51351457790368	1.370	
1.5368249199759492e-10	4.629557549730955e-13	-777721.2175137809	91786.86625155856	33.402022928711226	1.460	
1.6232294181481824e-10	4.4824948236172704e-13	-777706.1190245167	91827.15612747899	33.46815633367023	1.551	
1.7087401393604814e-10	4.1370397222449473e-13	-777691.3619111764	91865.97817750253	31.859699081808795	1.642	
1.7897778209638708e-10	3.9223133052103396e-13	-777678.2212116136	91900.07941853418	28.89863457763727	1.733	
1.8680736922154184e-10	3.8167182760255746e-13	-777666.862971723	91929.14130940952	24.860262250421172	1.825	
1.9423395541227992e-10	3.5916949260562236e-13	-777657.7370312946	91952.14154321564	20.134397924632786	1.915	
2.0112542908346963e-10	3.351503615015471e-13	-777651.008067113	91968.81360633965	15.136829231001151	2.006	
2.0771574540891234e-10	3.1393459805403957e-13	-777646.3442189192	91980.10904552066	9.964338042936177	2.097	
2.1391408164374192e-10	3.092892981009027e-13	-777643.6597195935	91986.34566706659	4.889771983946758	2.188	
2.20178574241811e-10	3.0691291343783305e-13	-777642.6905316522	91988.21816548903	-0.30688579931605753	2.279	
2.2639552447318884e-10	3.1948527814406856e-13	-777643.4800708307	91985.67638110963	-5.396849531601183	2.369	
2.3320610674114626e-10	3.623197390837104e-13	-777646.3101323181	91978.0005261991	-10.73987289037269	2.460	
2.4086099868290936e-10	3.9812930326039296e-13	-777651.8125709462	91963.64231266435	-16.256972619566525	2.551	
# Table End
