# OOMMF: rectangular mesh v1.0
# Segment count: 1
# Begin: Segment
# Begin: Header
# Title: 
# Desc: time = 2.3320610674114626e-10
# Desc: stepsize = 3.623197390837104e-13
# Desc: step = 540
# meshunit: m
# valueunit: (none)
# valuemultiplier: 218607.9757094689
# xmin: 0
# ymin: 0
# zmin: 0
# xmax: 4e-07
# ymax: 1e-07
# zmax: 4e-09
# ValueRangeMaxMag: 1
# ValueRangeMinMag: 0.003868433636927421
# meshtype: rectangular
# xbase: 2e-09
# ybase: 2e-09
# zbase: 1e-09
# xstepsize: 4e-09
# ystepsize: 4e-09
# zstepsize: 2e-09
# xnodes: 100
# ynodes: 25
# znodes: 2
# End: Header
# Begin: Data Text
0.8314915065264212 -0.5375071937632306 -0.1398473357092999
0.249219263941035 -0.3674624005588036 0.06881857183860135
0.1169628264967828 -0.2953962119699648 0.08331924134986088
0.06277162193905743 -0.2496087511457491 0.07988076701322151
0.0347625960895068 -0.214093507238004 0.07297325299709899
0.01860792740114369 -0.1844003002081342 0.06535242950285158
0.008782475579599576 -0.1589014784343819 0.05785489730843894
0.00268949354992465 -0.1368001750886034 0.05079294997085962
-0.001059779956728956 -0.1175863271086122 0.04428712546585561
-0.00327740843861674 -0.1008704787865645 0.03837393316906807
-0.00446939583610319 -0.08632881752152005 0.03304881314889403
-0.004965942925819893 -0.07368311020848875 0.02828639933490627
-0.004990016880036815 -0.06269182606538073 0.02405102283815171
-0.004696011802560336 -0.05314484814526029 0.0203023560179907
-0.004192825204294019 -0.04485941722543134 0.01699896379024708
-0.003558306023981923 -0.03767660763980492 0.01410014713550159
-0.002848562058180555 -0.03145814702153384 0.01156680519736318
-0.002104172547148059 -0.02608355559005976 0.009362207710509073
-0.001354470353625665 -0.02144764866212805 0.007452174882184357
-0.0006204758440288858 -0.01745838099797779 0.005804999584513772
8.302885325008452e-05 -0.0140349789957337 0.00439168057583131
0.0007459759972794336 -0.01110642634833133 0.00318578745595037
0.001361915254714416 -0.008610190907048842 0.002163241057834304
0.00192718092709541 -0.006491116326429237 0.001302240584847226
0.002440227803816715 -0.004700510753380865 0.0005830238408144692
0.002901098383004408 -0.003195360327820878 -1.233933419662099e-05
0.003311027955560749 -0.001937624504289249 -0.0005001601118416029
0.003672139750203511 -0.0008936746189451605 -0.0008950766851611916
0.003987181123539576 -3.382996173324619e-05 -0.001210124818407855
0.004259348380510005 0.0006680427129304667 -0.001456954538485213
0.004492136875981621 0.001234898867713471 -0.001645820303165122
0.004689173060441018 0.001686859262759494 -0.00178570666127801
0.004854092532206705 0.002041522099208049 -0.001884618374841035
0.004990464224894671 0.002314296114323071 -0.001949582678961209
0.005101744368397648 0.002518648463278183 -0.001986710519100411
0.005191247082508202 0.002666296179017346 -0.002001222102000463
0.005262132513792104 0.002767392749386415 -0.0019975491824801
0.005317421751994638 0.002830705805561505 -0.001979498627597148
0.005359962210334083 0.002863800808119099 -0.001950295018337132
0.005392390732510794 0.002873181261614139 -0.00191281953380669
0.005417149039135637 0.00286443084853013 -0.00186952152299895
0.005436529651798032 0.002842335398849327 -0.001822448455381565
0.005452727857664331 0.002810934117119288 -0.00177329710179264
0.005467827772812661 0.002773548365190072 -0.001723445533123026
0.005483789140398905 0.002732863734574016 -0.001674085853061018
0.005502465469291511 0.002691046558674343 -0.00162615887914528
0.005525642173894047 0.002649818589789404 -0.001580471448499042
0.005555076728596208 0.00261046359709977 -0.001537613752052533
0.00559252219664285 0.002573819255297811 -0.00149792892216411
0.005639758456777229 0.002540290730564267 -0.001461532608490771
0.005698600185652047 0.002509900972766716 -0.001428337078668134
0.005770939221343859 0.002482343258354394 -0.001398156468177376
0.005858804702076209 0.002456950865469691 -0.001370599012519259
0.005964403094093348 0.002432626651969113 -0.001345075936114053
0.006090155362281996 0.002407781836250487 -0.001320682835366577
0.006238728027601389 0.002380309793573931 -0.001296242187914916
0.006413088728340876 0.002347567249483207 -0.001270370116650496
0.006616570378246781 0.002306291944335412 -0.001241399996998728
0.006852960597953503 0.002252459026686483 -0.001207354983459777
0.007126550504155386 0.002181115870742069 -0.001165749821389771
0.007442158236308365 0.002086263388227149 -0.001113680070002139
0.007805227642826166 0.00196073880090264 -0.001047714173126224
0.00822196028145564 0.00179600769404339 -0.0009637510557680051
0.008699441218243632 0.0015819116588229 -0.000856938920594768
0.009245713809862405 0.001306378667826295 -0.000721539246861755
0.009869883098869782 0.0009550733387387034 -0.0005509143615907891
0.01058226308982116 0.0005110143057759308 -0.0003370264039335856
0.01139450579536385 -4.585651264182081e-05 -7.019187823606134e-05
0.01231975964047819 -0.0007391461851868136 0.000261036349584011
0.01337282594182291 -0.001596581121416701 0.0006701496172180119
0.01457027927448698 -0.002650645469477494 0.001173040609652135
0.01593052704458458 -0.003939247848231109 0.001788547491835324
0.01747382964870797 -0.00550647276176938 0.002538741906690422
0.0192222853484403 -0.007403282800727978 0.003449500950063126
0.0211996609451594 -0.009688184251467918 0.004551206770813139
0.02343108194505636 -0.01242785766795034 0.005878982101374194
0.0259425379344203 -0.01569769570443171 0.007473190960799327
0.02875999453347285 -0.01958215068554428 0.009380145490790595
0.03190809932268703 -0.02417475856479396 0.01165244732828932
0.0354084114649743 -0.02957779624729438 0.01434933658844141
0.03927699437529446 -0.03590138602165881 0.01753682918237611
0.04352130525023791 -0.0432618624193009 0.02128753872260516
0.04813633967664308 -0.05177946230654619 0.02567964361578255
0.05310010759517604 -0.06157520955093166 0.03079521148053848
0.05836858102104363 -0.07276694805761534 0.03671803918252239
0.06387057159364334 -0.08546474028620955 0.0435299137325228
0.06950335464264627 -0.09976571080036251 0.0513060441912765
0.0751298554878473 -0.1157485007494105 0.06011003516717433
0.08057852935669917 -0.1334674488011074 0.06998768566444719
0.08564689677422059 -0.1529461623802287 0.08096123101040467
0.09010882307696491 -0.1741692542757515 0.09302503150787923
0.09372505624170595 -0.1970692439112034 0.1061425986656989
0.09625573213148036 -0.2215019476968862 0.1202465761117586
0.09747456446449494 -0.2471953562865202 0.1352415367518309
0.09719291919632612 -0.2736356314166022 0.1510092362778866
0.09533558804457212 -0.2997905124017914 0.1674226347554616
0.09226233892770537 -0.3233438227837683 0.1844091326919632
0.090400824794499 -0.3380912096629687 0.2023738305642166
0.1056916314830187 -0.3216458753358783 0.2266614506354623
0.3326972193501299 -0.1332095648789007 0.3582617965593103
0.8778066228496744 -0.1883665762803771 -0.2401702340921883
0.3094065671504269 -0.1718022249630829 -0.006103495723401217
0.1560761986891495 -0.1430018467336563 0.01898611860716729
0.09139545609461687 -0.119723700970315 0.02300098179304789
0.05760620928266283 -0.1014032573984344 0.02275319973040779
0.03764607532069018 -0.08650342386396656 0.02127970481899197
0.0249658727977791 -0.07407936339617033 0.01941282549736328
0.01656854949912065 -0.06357287004510483 0.01744749304817723
0.01089156266976875 -0.0546210142609134 0.0155103848178976
0.007034700745550578 -0.0469617127956438 0.01366352885382373
0.004438337455153529 -0.0403909895008009 0.01193866986990988
0.002734150688902473 -0.03474314642925561 0.01035110402131892
0.001669264313425769 -0.02988067872425108 0.008906254162337826
0.001064641357060071 -0.02568835881609272 0.007603148676163365
0.0007906698596824453 -0.02206920834903409 0.006436969290940326
0.0007519826180869975 -0.01894142417542815 0.005400516417625846
0.0008776558657977808 -0.01623588558535288 0.004485024563399641
0.001114593804899075 -0.01389406842222415 0.003681100767448773
0.001422893346025204 -0.01186629520473864 0.00297914214221357
0.001772606119712462 -0.01011026625658529 0.002369532929816621
0.002141384793488574 -0.008589835515547083 0.001843149365121474
0.00251271583881302 -0.007274009136501461 0.001391438720720453
0.00287463901402969 -0.006136113887084012 0.001006389730538274
0.003218759766800892 -0.005153111057523253 0.0006806236794595766
0.003539456105738436 -0.004305033229119999 0.0004072963064901706
0.003833248328199022 -0.00357451647006017 0.0001800379381047623
0.0040983125273316 -0.002946410366473382 -7.146161573756224e-06
0.0043340899299453 -0.002407465101353993 -0.0001596974090802828
0.004540957576887274 -0.001946074555284547 -0.0002824637519472801
0.004720010598214506 -0.001552063906349733 -0.0003798294619827913
0.004872883511617193 -0.001216509877617349 -0.0004556173958134079
0.005001558230916432 -0.0009315865792156434 -0.0005131520174872394
0.005108232567451863 -0.0006904252748364099 -0.0005554820273885449
0.005195220423425542 -0.000486989577267325 -0.0005852907100980819
0.005264863505088486 -0.0003159719954046832 -0.0006048824319390656
0.005319479929543607 -0.0001727118726667465 -0.0006161503700345571
0.005361343944037309 -5.312454825300272e-05 -0.0006206315426559057
0.005392697775753385 4.636337577438106e-05 -0.0006196345180136901
0.00541570626135171 0.0001288756965000218 -0.0006142426449969033
0.005432408136162678 0.0001971385390779554 -0.0006055263842901382
0.005444724398226073 0.0002535280843973471 -0.0005943967561587765
0.00545447805036541 0.0003001089592559742 -0.0005815917135572902
0.005463419487700814 0.0003386556602369689 -0.0005677161050112874
0.005473218991041194 0.0003706688145979765 -0.0005532687319550332
0.005485478972644572 0.0003974001304345209 -0.0005387604790169345
0.005501750680671974 0.0004198819616962721 -0.0005246042187897638
0.005523542135208268 0.0004389507090587277 -0.0005112190118936261
0.005552336245364005 0.0004552577610207801 -0.0004989323103613397
0.005589613942754269 0.0004692730954843387 -0.0004879460341898095
0.005636900807999068 0.00048129052406713 -0.0004783538325539052
0.005695785193947749 0.0004914397898794394 -0.0004701504301240558
0.005767939578932397 0.0004996948204440283 -0.0004633373198419488
0.005855146308786203 0.0005058686214527876 -0.0004578117270591423
0.005959327603348378 0.0005095968927432411 -0.0004534003153548313
0.006082594286009934 0.000510317704791844 -0.0004497475621616172
0.006227285286422613 0.0005072552494954919 -0.0004463740376006083
0.006396009940814618 0.0004994017203554276 -0.000442767097332984
0.006591678586601982 0.0004854876423111153 -0.0004383215972919054
0.006817566400451015 0.0004639368686126521 -0.0004323658160258528
0.007077368152734929 0.0004328149073629297 -0.0004240070791673178
0.00737523534492204 0.0003897790014235311 -0.0004122718992218443
0.007715852165795534 0.0003320266849775563 -0.0003960320233367086
0.008104526777979295 0.000256228076423066 -0.0003739180227009593
0.008547292482075952 0.000158437207821773 -0.0003443440613071495
0.009050959129323452 3.399021103894666e-05 -0.0003054757745480237
0.009623193191309805 -0.0001226054754958439 -0.0002553299790507744
0.01027264325676272 -0.0003177968864052533 -0.0001913675156226832
0.01100904324238857 -0.0005591214451611584 -0.0001103821320086204
0.01184333849693141 -0.0008553571317526224 -8.572414597652012e-06
0.01278780630445174 -0.001216686482035504 0.0001185446209601924
0.01385615527778957 -0.001654866143137363 0.0002762701270664218
0.01506357148784383 -0.002183390123559486 0.0004710291715610474
0.01642674937897525 -0.002817642538633622 0.0007104032122312269
0.01796392021740352 -0.003575013703003796 0.001003430438388042
0.01969473470017453 -0.004474961273766765 0.001361049402285634
0.02164002705031176 -0.005539000600472447 0.001796050491926523
0.023821442125221 -0.006790603993094739 0.002323312208941552
0.02626073372443498 -0.008254962589960255 0.002960316837493178
0.02897871179327841 -0.009958581092823895 0.003727374219290713
0.03199376831979623 -0.01192867476510822 0.004648028177447024
0.03531983406983189 -0.01419235252878774 0.005749421534556142
0.03896364040901194 -0.01677558826097322 0.007062562318829729
0.04292120067783246 -0.01970203148518843 0.008622042353077482
0.04717357919894085 -0.02299174314388956 0.01046541100077496
0.05168200653136525 -0.0266600003408153 0.01263238086108865
0.05638276833961962 -0.03071631561781485 0.0151627638588371
0.0611827452778838 -0.03516381364963513 0.01809379321694016
0.06595655096531836 -0.03999896004686593 0.02145704689659165
0.07054678025286909 -0.04521129214453996 0.02527403464125079
0.07476906883102671 -0.05078224291694321 0.02955193592210509
0.07842334124893832 -0.05668108372401134 0.03428038997439258
0.08131314733383113 -0.06285433603358319 0.03942931545912404
0.08327666047075911 -0.06920191549715453 0.04495008918864887
0.08424052513126237 -0.07552674867131637 0.05078147854375621
0.08433566296436061 -0.08142863828194187 0.0568639401428966
0.08421140868406499 -0.08606996363593249 0.06318139806056998
0.08607509329645907 -0.08761536335279201 0.06992280969433345
0.0979048821091562 -0.08179595251999014 0.07836629774401857
0.155888823561559 -0.05868533840729171 0.09857182414277704
0.5165922216267874 -0.007208141084014759 0.2711708007447327
0.8536729244502557 -0.1032236711650625 -0.246338026075296
0.3230737973651508 -0.112876157985335 -0.01674583958844867
0.1747395155203364 -0.1038693783886824 0.01040407290672146
0.1081080405001549 -0.09090591547751407 0.0162391515345661
0.07172935822244833 -0.07845805100626022 0.01731595140340712
0.04954418430376414 -0.06750220380658212 0.01683717574678168
0.03503967468645598 -0.05807461098896305 0.01574999367223788
0.02513570836367061 -0.05000735533151061 0.01441374956544132
0.01819980302322503 -0.0431106920921742 0.01299306234899629
0.01328285686273466 -0.0372121979467283 0.01157475112800495
0.009790073251381808 -0.03216230165753407 0.01020826898373818
0.007326100034261957 -0.02783286786655961 0.008922264736237655
0.005616187078140674 -0.02411474679663707 0.007732514766546561
0.004463092899417063 -0.0209153807508623 0.006646179591554393
0.003721891149420427 -0.01815659951121358 0.005664863892500207
0.003284316187692833 -0.01577259368240357 0.004786473399598907
0.003068610398219813 -0.01370808188408311 0.004006337177290507
0.003012612524600787 -0.01191666702440374 0.003318367526794505
0.00306886214470529 -0.01035939538130484 0.00271565141401727
0.003201125879870648 -0.009003514451443506 0.002190807083448858
0.003381830343287243 -0.007821414874082567 0.001736596165073757
0.003590113827934922 -0.006789754836682643 0.001346062395941023
0.003810395218022784 -0.005888721175010256 0.00101256864720587
0.004031256009156786 -0.005101419869448017 0.000729933257368428
0.00424454140182376 -0.004413380059849203 0.0004923436520649552
0.004444645353422888 -0.003812145833829664 0.0002943369590650969
0.004627947752076898 -0.003286939373447243 0.0001307346099673089
0.004792359832112906 -0.002828396035053072 -3.184084318991393e-06
0.004936946897658579 -0.002428346821604863 -0.0001116329493896417
0.005061672723931781 -0.002079641126255371 -0.0001984216766671635
0.00516719037492472 -0.001776003256111736 -0.000266846381606407
0.005254628608756724 -0.001511914011996175 -0.0003197617452007385
0.005325446728735105 -0.001282506899923118 -0.00035980188173678
0.005381317759097561 -0.001083480717014991 -0.0003892679187535012
0.005424019332081028 -0.0009110280511212219 -0.0004101170786556927
0.005455369745385877 -0.0007617787504267872 -0.0004239453208583037
0.005477200479402975 -0.0006327501820441956 -0.0004320291061803715
0.005491361380074926 -0.0005213042449772542 -0.0004354441635808459
0.005499669564897032 -0.0004251088740974098 -0.0004350686235933899
0.005503855486160445 -0.0003421070154451364 -0.0004318002985758507
0.005505565974383693 -0.0002704880926590981 -0.0004264063376106705
0.005506374118900149 -0.0002086641799720894 -0.0004194979190175084
0.005507795916608274 -0.0001552549392849914 -0.000411578947947968
0.005511283192377711 -0.0001090751473402208 -0.0004030724078732934
0.005518240414447288 -6.912001591161244e-05 -0.0003944305320267802
0.005530041251048033 -3.455146464037713e-05 -0.0003860193844200255
0.005548029644819654 -4.684731140619113e-06 -0.0003782212116151178
0.005573531488793639 2.102110216885041e-05 -0.0003713438745886542
0.005607875284360172 4.296837134621218e-05 -0.0003655882699809422
0.00565243985687233 6.14246303377891e-05 -0.0003610637945636327
0.005708673540248197 7.652727717119177e-05 -0.0003577900467021262
0.005778110086931894 8.828498387122639e-05 -0.0003558018784631836
0.00586238524650726 9.657510437907956e-05 -0.0003550447843820573
0.005963260783843891 0.0001011365081165167 -0.000355412458418171
0.006082672189197508 0.0001015562410388897 -0.0003566385078254733
0.006222767313377549 9.72554346162334e-05 -0.000358350442350444
0.006385944213618302 8.747272001580217e-05 -0.0003601601539537474
0.006574873306691597 7.124267354504447e-05 -0.000361609967696162
0.006792552096235051 4.736872261936858e-05 -0.0003622138485331321
0.007042357070330369 1.439187137088098e-05 -0.0003613110723046918
0.007328080027076547 -2.94456942589024e-05 -0.0003582005587595025
0.007653997246383049 -8.624050952625427e-05 -0.0003520747229093869
0.008024948083970217 -0.0001584732097678507 -0.0003419449929120959
0.00844642416587914 -0.0002490639278921487 -0.0003266838341714039
0.008924612398824222 -0.0003614351537877327 -0.0003050012739797252
0.009466466670293891 -0.0004995796351238697 -0.0002755576154273302
0.01007982645144389 -0.0006681374222080993 -0.0002365803212266881
0.01077351302385563 -0.0008724731817745889 -0.0001857594584728821
0.01155744822117468 -0.00111875773989642 -0.0001203408683172864
0.01244277366199839 -0.001414051714125037 -3.707209024788286e-05
0.01344195818601979 -0.001766380627380078 6.790583547864389e-05
0.01456886161430519 -0.002184788236971304 0.0001993477979093028
0.01583879474693872 -0.002679367476284218 0.0003629180404391379
0.01726859706182165 -0.003261249870864185 0.0005654436517333966
0.01887659117570929 -0.003942530375920854 0.0008153460355825814
0.02068243433765557 -0.00473610659914079 0.001122609557028234
0.02270685888383114 -0.005655418206316255 0.001498998164760179
0.02497112186059858 -0.006714049221935615 0.001958570701170731
0.02749612832126971 -0.00792516997940104 0.00251797320278328
0.03030114339915888 -0.009300797442253003 0.003196939555955853
0.03340193337963888 -0.01085087660283706 0.004018757951646862
0.0368081781692891 -0.01258220068018996 0.005010688901985597
0.04052001600472855 -0.01449723174632662 0.006203908182627033
0.04452373892569654 -0.01659292579039355 0.007633072146218892
0.04878666436526547 -0.01885975441819583 0.009335668608232746
0.05325159152432209 -0.02128109285378966 0.01135008742935814
0.05783178873753839 -0.02383317948172979 0.01371290400688514
0.06240769436813476 -0.02648571141924207 0.01645551504420497
0.06682729300804525 -0.02920280593126241 0.01959924109651513
0.07091264798342786 -0.03194352942509271 0.02315033900558348
0.0744752137882197 -0.03466021768228515 0.02709594983694318
0.07734378047506206 -0.03729145368396554 0.03140131328670212
0.07941206702671623 -0.03974448778769017 0.0360110032916551
0.08072421927000982 -0.04185842699018603 0.04085637841745276
0.08165348582657013 -0.04333319823082907 0.04587471345499124
0.08334817056968036 -0.04359887017466221 0.0510649552385224
0.08904596805644539 -0.04159633397764063 0.05669447117530026
0.1086867923697353 -0.03555275573041423 0.06434165181641253
0.179965545538841 -0.02369495337535427 0.08500768109943421
0.54115709925333 -0.01046995424019362 0.2578883810954258
0.8195734222811291 -0.06863545738774823 -0.2443405380114034
0.3203806091801046 -0.08662533765784212 -0.02260156273181182
0.1825168906773154 -0.08661059304829336 0.00497415940157027
0.1186090481145981 -0.0798455966162752 0.01207974048758161
0.08214034745546857 -0.0710752092809024 0.01428639985605812
0.05899149814645049 -0.06228026473688231 0.01466634051177511
0.04333571104998016 -0.0541897305945295 0.01420469875881375
0.03232133804373788 -0.04701178341424973 0.01331925354240747
0.02438559073841163 -0.04074974272127685 0.01222304445337419
0.01859399072862353 -0.03533119053242829 0.01103862257344343
0.01434695769748794 -0.03066031766034767 0.009841112347581673
0.01123765398373035 -0.02663934375479011 0.008677540544087189
0.008977992965469184 -0.02317720246327904 0.007576865722365878
0.007357543803516779 -0.02019272964528304 0.006555714231043717
0.006219196834980859 -0.01761536354547599 0.005622463052368413
0.005443854503915125 -0.01538468612221956 0.004779844629027739
0.004940360899361911 -0.01344946805909369 0.004026626464212888
0.004638536592133463 -0.01176652767898924 0.00335915927019838
0.004484164240282753 -0.01029958197448428 0.002772246941790592
0.004435364522377015 -0.00901817716081031 0.002259720047293934
0.004459871789202913 -0.00789672969763227 0.001815192018684414
0.004532940166063597 -0.006913707194347994 0.001432294255435009
0.004635781541458727 -0.00605092355990656 0.00110480750440427
0.004754327781426411 -0.005292951079339952 0.0008268563635195057
0.004878232156115792 -0.004626637916977384 0.0005928310267261537
0.005000074472811001 -0.004040710700690901 0.0003974039261711243
0.005114725299176088 -0.003525445200348878 0.0002355096197613134
0.005218829998869419 -0.003072411595566376 0.0001025164164070886
0.005310386340308645 -0.002674263662882504 -5.724489239013974e-06
0.005388451769761333 -0.002324568357276512 -9.296059720031109e-05
0.005452903321716255 -0.002017670688278741 -0.0001624196954942886
0.005504201873098604 -0.001748583333371949 -0.0002168905174402567
0.005543231790098374 -0.001512892099960406 -0.0002589434782912683
0.005571168133280892 -0.001306679671474774 -0.0002908036187632263
0.005589350684960698 -0.001126463220515469 -0.0003143507233921993
0.0055992107580648 -0.0009691445365579569 -0.0003311234302936808
0.005602237471577639 -0.0008319657804897163 -0.0003423481915955541
0.005599975159394407 -0.0007124730051108025 -0.0003490472136572783
0.005593966766238663 -0.0006084851637675573 -0.000352045865775775
0.00558569609651417 -0.0005180693156122025 -0.0003521993929124342
0.005576587333825414 -0.000439517492403082 -0.0003502430704941451
0.005568009289214977 -0.0003713269846974446 -0.0003467581457426194
0.005561287084343386 -0.0003121864051948878 -0.0003422303416865919
0.005557694067613287 -0.0002609633754009509 -0.0003370741845913515
0.005558468747881564 -0.0002166919646079517 -0.0003317342233201338
0.00556483104536644 -0.0001785635633777313 -0.0003265663238188577
0.005577981140024777 -0.0001459170627887174 -0.0003219411959616363
0.005599108618874546 -0.0001182300169838504 -0.0003181647043448543
0.005629410781755047 -9.511241779208953e-05 -0.0003154460976979513
0.005670138217955436 -7.630276547117211e-05 -0.0003139109154405592
0.005722612858701513 -6.16658585092757e-05 -0.0003135945613293741
0.005788241463629303 -5.119415675029492e-05 -0.0003145488053342023
0.005868528536920527 -4.501040157004134e-05 -0.0003167458105288884
0.005965095811573203 -4.337219937995486e-05 -0.0003201168986936427
0.006079726433181239 -4.668289755771831e-05 -0.0003244460313200397
0.006214400732960807 -5.550499382422044e-05 -0.000329415601875527
0.006371331130990077 -7.057670684119305e-05 -0.0003346963500113061
0.006552981177637188 -9.283204839770091e-05 -0.0003398988078518365
0.006762115293556924 -0.0001234232744928157 -0.0003446273478426201
0.007001846202784506 -0.0001637462529422679 -0.0003483377767141731
0.007275666812315914 -0.0002154732572914912 -0.0003504586047259406
0.007587514955278415 -0.0002805906681451905 -0.000350332469806116
0.007941846571709342 -0.0003614395206962926 -0.0003471513856180487
0.008343718423035756 -0.0004607614759114879 -0.0003400095050770109
0.00879882564301613 -0.0005817493738720651 -0.0003278773989396874
0.009313567382328832 -0.0007281021898412172 -0.0003097187871112195
0.009895163109126979 -0.0009040880997807048 -0.0002841311619515337
0.01055174866596242 -0.001114604062247666 -0.0002492383170256738
0.01129249467941163 -0.001365234839688016 -0.0002027877133746423
0.01212773209679935 -0.001662310453688918 -0.0001421126592069783
0.01306907635542897 -0.002012952308122706 -6.404191215431937e-05
0.01412951787332437 -0.002425091786748141 3.53872177317666e-05
0.01532351689652081 -0.002907461066892833 0.0001609478131562596
0.01666713459257998 -0.003469540905508263 0.0003184496260252249
0.01817806769603932 -0.004121441536769616 0.0005151718282486083
0.01987559743229337 -0.00487369054246496 0.0007598691641132175
0.02178044985137436 -0.005736912928626423 0.001062989582909777
0.02391439963991988 -0.006721364742344655 0.001437206349570007
0.02629957007557832 -0.007836304840651117 0.001897788460029827
0.02895732903922503 -0.009089169143326829 0.002463196219090759
0.03190660758820524 -0.01048455004698504 0.003155654332475295
0.03516145423040203 -0.01202299329952369 0.004001717556527378
0.03872763092230132 -0.01369966317969053 0.0050324210794331
0.04259820771400609 -0.01550297415251148 0.006283016837076349
0.04674813385833539 -0.01741339216425549 0.007792447820629538
0.05112815100525644 -0.01940260891520675 0.00960152259567151
0.05565902620225483 -0.02143337033611916 0.01175010129701876
0.06022747931237888 -0.02346016103909178 0.01427336130476541
0.06468615713233386 -0.02543069666614721 0.017196289958249
0.06886082854158093 -0.02728775434561281 0.02052773441890183
0.07256847051482687 -0.02897005021217134 0.02425515381561017
0.07565145822747021 -0.03040987006147639 0.02834075728669387
0.07803660608887633 -0.03152401790342257 0.03272211345152107
0.07983944328380317 -0.03219377278159771 0.03732007590130283
0.08157077097399883 -0.03223016407214345 0.04206066029681337
0.08461442286637672 -0.03132803776623813 0.04693823818078547
0.09252705442820441 -0.02904525096903768 0.05223972080143811
0.1153220940013273 -0.02496602915458403 0.05961140662084401
0.1888288067526792 -0.01957091856772495 0.08000525915792742
0.5405811815627714 -0.01744767786121391 0.2489055441785487
0.7818420880074751 -0.05068624286701849 -0.2408150441839342
0.31113172827483 -0.07208358976936612 -0.02798828725323051
0.1842465971147548 -0.07668001666505295 -0.0006486674631920746
0.1249566461175951 -0.07390184375551662 0.007429823755948334
0.09000004733994763 -0.06787899518043455 0.01073706742541392
0.06691653739170624 -0.06077161840154683 0.0120649336846678
0.05071322668164633 -0.05365588255525881 0.01234559403681643
0.03893479653528194 -0.04701935763178067 0.01201637039178994
0.03019954655390886 -0.04104690151709921 0.0113272620522184
0.02365200144719244 -0.03577469416376247 0.01043656686288977
0.01872348729224832 -0.03116973377716295 0.009448887307760813
0.0150153656354946 -0.02717007601471141 0.008434046156753999
0.01223716965273597 -0.02370497002775668 0.007438087865593052
0.01017145640028641 -0.020704698037167 0.006490226889383767
0.008652455959352557 -0.01810508672494946 0.005607990576166305
0.007552264767639347 -0.01584923071051746 0.004800695730608509
0.006771500192996864 -0.01388779263814051 0.004071816676770128
0.00623264648472129 -0.01217858351364598 0.003421040092386985
0.005875130411366374 -0.01068582646214408 0.002845515356021745
0.005651668396263486 -0.009379321562364576 0.002340712535833871
0.00552545731959254 -0.008233613843987709 0.001901374193787982
0.00546797528121662 -0.007227240711245511 0.00152189349934931
0.00545731039107132 -0.006342062180676521 0.001196567262706455
0.005476816626738778 -0.005562689081570093 0.0009198771050962899
0.00551402103141598 -0.004876003854973976 0.0006864417008881645
0.005559750732017415 -0.004270763506458694 0.0004910657724351138
0.00560742613986749 -0.003737269231061235 0.0003287718697268775
0.005652483986312388 -0.003267110509084366 0.0001949850419832383
0.005691909366495098 -0.0028529524570974 8.55875021044645e-05
0.005723905143197336 -0.002488364059902836 -3.142270201791718e-06
0.005747620619595152 -0.002167682483954265 -7.440321447071742e-05
0.005762893131037537 -0.001885902610635239 -0.0001309544701496645
0.005770070527927162 -0.00163858290166811 -0.0001753320989887499
0.005769862350711808 -0.001421773321783886 -0.0002097141955220586
0.005763198982091147 -0.001231954057202947 -0.0002359316259459008
0.00575114986361575 -0.001065985671160363 -0.0002554905476034432
0.005734883104586138 -0.0009210660612601073 -0.0002695897691337314
0.005715654484555632 -0.0007946962334489755 -0.0002792162488223208
0.00569474562591629 -0.0006846517383746086 -0.0002851599128221419
0.005673403256242545 -0.0005889591065973913 -0.0002882497453604718
0.005652835559994786 -0.0005058735669906646 -0.0002892044421774801
0.005634212405140785 -0.0004338604644770917 -0.0002885899758837097
0.005618673850005103 -0.0003715806462620509 -0.0002868851311850602
0.005607320591567467 -0.0003178763437721861 -0.000284503723974176
0.005601228973508354 -0.0002717579885727907 -0.0002818868329681606
0.005601466145952209 -0.0002323967756706572 -0.0002793824170409484
0.005609088174670938 -0.0001991164775527947 -0.0002773515638653221
0.005625148409061911 -0.0001713845841379423 -0.0002761001477418645
0.0056507137319847 -0.0001488048193408456 -0.0002758450770690113
0.005686906573343085 -0.0001311125293982436 -0.0002767236252500058
0.005734920557652011 -0.0001181737083519499 -0.0002787809227956433
0.00579603225823085 -0.0001099880688519267 -0.0002820799726195771
0.005871612509864341 -0.0001066923334818581 -0.0002866156829185202
0.005963142356892577 -0.0001085636627975639 -0.0002923523489736487
0.006072252928242153 -0.0001160290957695238 -0.0002991174937326002
0.006200757474820438 -0.0001296788294667575 -0.0003066380616389135
0.006350683376491019 -0.0001502831676905709 -0.0003146310624131376
0.00652428960051136 -0.0001788128867476647 -0.0003227616098373573
0.00672411305089008 -0.000216460234298045 -0.0003307074118462512
0.006953011300749917 -0.0002646621688969175 -0.0003380197802247428
0.007214188548414545 -0.0003251319250917335 -0.0003442294402648239
0.007511255773839136 -0.0003998967712937273 -0.0003487962058149469
0.007848301063155127 -0.0004913382845832749 -0.0003510555696740157