# OOMMF: rectangular mesh v1.0
# Segment count: 1
# Begin: Segment
# Begin: Header
# Title: 
# Desc: time = 1.5368249199759492e-10
# Desc: stepsize = 4.629557549730955e-13
# Desc: step = 320
# meshunit: m
# valueunit: (none)
# valuemultiplier: 218551.3726228144
# xmin: 0
# ymin: 0
# zmin: 0
# xmax: 4e-07
# ymax: 1e-07
# zmax: 4e-09
# ValueRangeMaxMag: 1
# ValueRangeMinMag: 0.003881238315244943
# meshtype: rectangular
# xbase: 2e-09
# ybase: 2e-09
# zbase: 1e-09
# xstepsize: 4e-09
# ystepsize: 4e-09
# zstepsize: 2e-09
# xnodes: 100
# ynodes: 25
# znodes: 2
# End: Header
# Begin: Data Text
0.831859702180009 -0.5367444566063385 -0.1411196544444482
0.2493502832412347 -0.3664559830088672 0.06762596122132021
0.1170641439128405 -0.2944451727049339 0.08225886050746577
0.06286079542053136 -0.2487583084005131 0.07895183291044323
0.03484423098826932 -0.2133461195968036 0.07216151685967968
0.01868403601075645 -0.1837473720224707 0.0646423178015104
0.008854137709638847 -0.1583317749292509 0.05723235943363491
0.002757367082092251 -0.1363025917190244 0.05024588356710189
-0.0009952573390309852 -0.1171508494027843 0.0438052678386669
-0.003215908734963936 -0.100488463321313 0.03794865370342622
-0.004410671724725802 -0.08599299659581019 0.03267296377837936
-0.004909804562789718 -0.07338744914287895 0.02795402863323504
-0.004936270357883327 -0.06243133005799287 0.02375714154346599
-0.00464446540564049 -0.05291539202683547 0.02004287404306456
-0.004143348713727216 -0.04465759651426789 0.01677035532519312
-0.003510842656073402 -0.03749959986870514 0.01389920482034807
-0.002803138914043995 -0.03130357194106668 0.01139083622423243
-0.002060904202529072 -0.02594932804133209 0.009209047968596545
-0.001313487875159362 -0.0213318514327478 0.007319984100582783
-0.0005818417354122498 -0.01735921948759922 0.005692107090550001
0.0001193602389974412 -0.01395080710197273 0.00429642009519825
0.0007801297695862079 -0.01103575319255025 0.003106486112771879
0.001394028788134813 -0.008551690856454137 0.002098119761426418
0.00195735863831108 -0.006443648676905866 0.001249398204315814
0.002468501577022872 -0.004663071263685934 0.0005406795410425805
0.002927425350221092 -0.003166998832913547 -4.574764906481952e-05
0.003335346751607098 -0.001917441501946848 -0.0005260220006826384
0.003694416784038259 -0.0008808215424891006 -0.0009146023861684863
0.004007408947239608 -2.748521356150316e-05 -0.001224355905282986
0.004277525508987068 0.0006686712593003664 -0.001466931028214687
0.00450824279409377 0.001230558048741064 -0.001652550439805714
0.004703136935240448 0.001678280144119603 -0.001790016972310095
0.004865805528058195 0.002029465132308233 -0.001887074182935175
0.004999839594569677 0.002299521047512376 -0.00195050407424931
0.005108756071638452 0.002501931980767497 -0.001986118194364775
0.005195953587643741 0.002648458209720514 -0.001999060563240891
0.005264716961911131 0.002749273758386748 -0.001993980548777969
0.005318164049599611 0.002813149406838973 -0.001974769661393113
0.005359195055278186 0.002847585324701645 -0.001944828182145667
0.005390522822171044 0.002858925689064041 -0.001907134074640031
0.005414640284611517 0.002852517876257937 -0.001863964250892205
0.005433818737118939 0.002832853048954931 -0.001817257113388566
0.005450174527834672 0.002803679659348811 -0.001768612172970075
0.005465663784083218 0.002768130117661546 -0.001719202547836912
0.005482124308314095 0.002728825354783478 -0.001670122268872243
0.005501334917418531 0.002687920419007015 -0.001622282686427006
0.005525016447394546 0.002647157596617422 -0.001576426140938295
0.005554881221676913 0.002607900566643424 -0.00153325707149339
0.00559266526115428 0.00257110596107829 -0.001493253521949085
0.005640134584827455 0.002537336310183353 -0.001456711161960068
0.005699136359602371 0.002506750433180011 -0.001423696263425309
0.005771613494687344 0.002479054561801571 -0.001393937789975926
0.005859629982128764 0.002453519550474597 -0.001366933058777648
0.005965423749743837 0.002428953067554598 -0.001341872386423821
0.006091413870334368 0.002403664759820481 -0.00131769178827252
0.006240256398896703 0.002375476635591305 -0.001293195048086233
0.006414894351218531 0.002341667120667643 -0.001266927519917621
0.006618585117929655 0.002298918569940736 -0.00123728636590738
0.006855003292862439 0.002243256658169659 -0.001202487901358605
0.007128303227782973 0.00216991282850499 -0.00116028838892606
0.007443199720185011 0.002073163910738426 -0.001108092252808254
0.007805113113110431 0.001946139838124319 -0.001042695228932037
0.008220242733792509 0.001780560717706932 -0.0009599852397219816
0.008695677790352302 0.001566445358515313 -0.0008551468654033905
0.009239538767536047 0.001291829212740098 -0.0007223126281156975
0.009861037183073528 0.0009424122350095366 -0.0005544110779657429
0.01057058681895138 0.0005011871713477038 -0.0003433775259449286
0.01137994899662924 -5.191526977703338e-05 -7.968203357606448e-05
0.01230231933606203 -0.0007405197975282337 0.0002479537933229528
0.01335246418360482 -0.001592350314362925 0.0006526367607705539
0.01454690272036154 -0.002639805754266158 0.001149951096795631
0.01590399403553004 -0.003920687760193912 0.001758564065957509
0.01744397572415505 -0.005478964546120252 0.002500417480292008
0.01918898818390831 -0.007365483150088004 0.003401230687283129
0.02116288859745379 -0.00963868391098272 0.004491240743659856
0.02339086501760888 -0.01236525998395693 0.005805373381057404
0.02589892025795866 -0.01562061899273702 0.007383651130425182
0.02871303114006606 -0.01948915290595446 0.009272118116282636
0.03185786834204157 -0.02406434094244998 0.01152331013724672
0.03535507599782788 -0.02944842312979789 0.01419642199657134
0.03922096010949156 -0.03575151663019759 0.01735763666229853
0.04346334864395317 -0.04309013438259874 0.02107999278259186
0.04807764691199513 -0.05158490441258011 0.0254421359078835
0.05304226283607712 -0.061357366042948 0.03052660939510994
0.05831353843275524 -0.07252595184202495 0.03641764171153767
0.06382060002930305 -0.08520132447983371 0.04319774473432562
0.06946094756651795 -0.09948120543067523 0.05094309020414171
0.07509771452186384 -0.1154448346046834 0.0597181265603113
0.0805595410207092 -0.1331471319075228 0.06956978202717312
0.08564390159644722 -0.1526122772048442 0.08052157979218814
0.0901243055055727 -0.1738253972802301 0.09256873548596593
0.09376088594475736 -0.1967193606341167 0.1056754170025596
0.09631299950272762 -0.2211500990254911 0.1197747201526974
0.09755359889775063 -0.2468454836744086 0.134771202139982
0.09729347006560664 -0.2732913150129545 0.1505463156836687
0.09545744534763721 -0.2994545020386382 0.1669722040597591
0.09240693522217604 -0.3230170425119392 0.1839748352229325
0.09057532813875946 -0.3377704979839573 0.2019589020257589
0.1059261784505991 -0.3213167160966841 0.2262783684632659
0.333192490574644 -0.1328181170202733 0.3580506417490981
0.8785926796699606 -0.1881874803736891 -0.2413619819986973
0.3096013553440637 -0.1714735651667149 -0.007166991310391778
0.1561479802803702 -0.1426400852816741 0.01803888958111853
0.09143039832512728 -0.1193773537390431 0.02216699923858047
0.05762985017161265 -0.1010887839389532 0.02202088819684145
0.03766754991437354 -0.08622459254573567 0.02063644011156297
0.02498856077190846 -0.07383492115634385 0.0188471107319403
0.01659352221426797 -0.06335967696434425 0.01694928280504223
0.01091889664979345 -0.05443540478205004 0.0150710125908583
0.007064065638149354 -0.04680010379124517 0.01327555901636559
0.004469254810129233 -0.04025013646585631 0.01159584300984912
0.002766128805461918 -0.03462022450996873 0.01004813596355648
0.001701896590789925 -0.02977328143934566 0.008638658232635444
0.001097602106664622 -0.02559446399515857 0.007367213601986123
0.0008236558314657627 -0.02198713015129801 0.006229427972069459
0.0007847057901640561 -0.01886975709867092 0.005218322462830994
0.0009098352706893127 -0.01617344644917881 0.004325617754491536
0.001145944768892373 -0.01383983997830545 0.003542472022637458
0.001453169158723634 -0.01181937932495992 0.002859638456067994
0.001801640956240125 -0.01006985930704693 0.002267682734654234
0.002169114161443214 -0.008555222764853414 0.001757453967536967
0.002539148157841896 -0.007244563300872456 0.001320320704393257
0.002899791701905548 -0.006111293020439112 0.0009480697786028345
0.003242633708267632 -0.005132451446225582 0.0006331416585387054
0.003562016856059452 -0.004288131783800696 0.0003688170978914348
0.003854413351856311 -0.003561010288486061 0.0001489729875033372
0.004117987691264223 -0.002935965287745679 -3.217221108571122e-05
0.004352214417082657 -0.002399771851532451 -0.0001798444741581809
0.004557501139885934 -0.001940844919134711 -0.0002987064726572945
0.004734948659213745 -0.001549026029186191 -0.000393137702850405
0.004886180625652693 -0.00121540408510936 -0.0004669121924735444
0.005013148645817728 -0.0009321560980066531 -0.0005231377413869829
0.005118019816943518 -0.000692405280258523 -0.0005645516899194759
0.005203129849856419 -0.0004901047378949225 -0.000593519855895417
0.005270888987963467 -0.000319936022779809 -0.0006119815007846687
0.005323698715264527 -0.0001772258294011138 -0.0006217247358066867
0.005363945230747587 -5.788135052789401e-05 -0.0006245138934291356
0.005393939241411098 4.166495679713267e-05 -0.0006217850930400951
0.005415852422126601 0.0001245096921494115 -0.0006148763249558174
0.005431752555170945 0.0001933261730224784 -0.0006050318108164136
0.005443572620872878 0.0002504122944177986 -0.0005930614801947278
0.00545309912891721 0.0002977392744012197 -0.0005796860844629623
0.005462034608403031 0.0003369924713653531 -0.0005654884937285814
0.005471983982940072 0.0003696073512557375 -0.0005507944365497959
0.005484478506538956 0.0003968021143297989 -0.0005360285323947983
0.005501022030239261 0.0004195985958760282 -0.0005215676633956432
0.005523082499145022 0.0004388379600098889 -0.000507750903011416
0.005552125185500124 0.0004551922081687945 -0.0004950180997863393
0.005589637450698895 0.0004691657765331028 -0.0004836832919925017
0.005637134745212266 0.0004810951493101417 -0.0004739943160576729
0.005696201258030909 0.00049114689554289 -0.0004660810229863199
0.005768507190099273 0.0004993093855360616 -0.0004598351623321188
0.005855837577697071 0.0005053878804012268 -0.0004550457578048746
0.00596013569192857 0.0005089976605192357 -0.0004513128435155146
0.006083514220421938 0.0005095515086688557 -0.0004481219620235901
0.006228307486067706 0.0005062502716381748 -0.0004450009625597468
0.006397106590608736 0.0004980676562955657 -0.0004413812944151099
0.006592779025685115 0.0004837259225034863 -0.0004367551258714754
0.006818553232248776 0.0004616662047278419 -0.000430672905483057
0.007078053388760347 0.0004300072541013949 -0.0004224571591474461
0.007375358675247638 0.0003864871468054903 -0.0004113895679880194
0.007715125052865534 0.0003283928913121001 -0.000396504809604975
0.008102629502712805 0.0002524764829494659 -0.0003763328895983401
0.008543869109970263 0.0001548568430636461 -0.0003492394198953628
0.009045690711538228 3.091228557399105e-05 -0.0003131820692955497
0.009615828824197368 -0.0001248305028091875 -0.000265657076789555
0.01026301086407314 -0.0003188173781066804 -0.0002040727722423262
0.01099707730361194 -0.0005585965784729749 -0.0001254257571667259
0.01182902766996955 -0.0008529575964982919 -2.613942924224903e-05
0.01277113055450876 -0.001212082255134503 9.78326566891828e-05
0.01383706777490968 -0.001647711288946596 0.0002514338132052464
0.01504199177859783 -0.002173311923608369 0.000440915078412068
0.01640257520569217 -0.002804235759889922 0.0006737574629032025
0.01793707132929405 -0.003557845992897259 0.0009588547436873466
0.01966518442048752 -0.004453593249480059 0.00130698040513588
0.02160778695117246 -0.005513007065464365 0.001730685118684848
0.02378654802333749 -0.006759579776758857 0.002244446922152763
0.02622325034325665 -0.008218519098869196 0.002865429000925776
0.02893872468002905 -0.009916347944662391 0.003613886061742867
0.03195142854577081 -0.01188030906735386 0.004513356373055412
0.03527547289285588 -0.01413756301497433 0.005591185299531392
0.03891785529140539 -0.01671418335960905 0.006878828703441312
0.04287490824337978 -0.01963397314214331 0.008411304877221453
0.04712804567875821 -0.02291717846700767 0.01022652800735393
0.05163886181766885 -0.0265792635126812 0.01236450227390604
0.05634398138592683 -0.03062990577588556 0.01486563582854764
0.06115054364009858 -0.03507235298201698 0.01776801327064688
0.06593341082798256 -0.03990313726421467 0.02110395098685416
0.07053540466177731 -0.045111803741714 0.02489600293061648
0.07477215728665136 -0.05067973778273245 0.02915254870964392
0.07844330609608023 -0.05657610845913085 0.03386396877307198
0.08135188341242618 -0.06274728378578635 0.03900075516219575
0.08333537871330485 -0.06909298887729323 0.04451469290910217
0.08431976647743426 -0.07541594077930688 0.05034448266649785
0.08443555474895266 -0.08131569437314196 0.05643022432943967
0.08433253190280984 -0.0859542232280562 0.06275492958751505
0.08622063210125579 -0.08749532300442174 0.06950599917755425
0.09808608690999453 -0.08166829280279331 0.07796147492377491
0.1561454093849547 -0.05854350971124941 0.09819406262872149
0.5171196486011483 -0.007045096377850862 0.27098576111875
0.8546411614459117 -0.103140837794635 -0.2475211011777864
0.3233436940216938 -0.1126922906431357 -0.01777559094496738
0.1748267574285967 -0.103643250174626 0.009483384549607274
0.1081306575763715 -0.09067243092876603 0.0154211279147089
0.07172947531270732 -0.07823544509768587 0.01659049744889383
0.04953884369157221 -0.06729856164888103 0.01619405061320968
0.03503592940791959 -0.05789254096226672 0.0151799043740459
0.02513624318532245 -0.0498466844944013 0.0139083969111223
0.01820528051350541 -0.04296993517591913 0.01254506468706279
0.01329301801707314 -0.03708934972063754 0.01117756652918194
0.009804267304692612 -0.03205525478971542 0.009856231176122082
0.007343564490478665 -0.02773962080527376 0.00861047238162034
0.005636218626268346 -0.02403349766500985 0.007456714142057928
0.004485079935368823 -0.0208445583988329 0.006402782772235721
0.003745275578552552 -0.01809485858359961 0.005450659243634703
0.003308594864320932 -0.01571879119096863 0.004598430315176467
0.003093329692254213 -0.01366124655548982 0.003841876463655835
0.003037356550132628 -0.01187596649700133 0.003175438678616673
0.003093283656440061 -0.01032410669116414 0.002592560104887112
0.00322497271344551 -0.008973004815424516 0.002086034762176627
0.003404957166437386 -0.007795131434879615 0.001648566260291974
0.003612452878209047 -0.006767215039688 0.001273087230149449
0.003831893108754805 -0.005869504691475374 0.0009527413825044551
0.004051852979914785 -0.005085163630334825 0.0006811652805308043
0.004264157252685522 -0.004399769114908345 0.0004526953072111583
0.004463163915049598 -0.003800901628695859 0.0002621477256996632
0.004645247285741193 -0.003277812356814065 0.0001045776226156425
0.004808355721997546 -0.00282116307078024 -2.451141649322839e-05
0.004951590183299945 -0.002422808228697513 -0.0001291345564200528
0.005074925217932152 -0.002075614541759172 -0.0002130744254481628
0.005179008758289626 -0.001773317093081196 -0.000279570600646127
0.005264948242984877 -0.001510399674443936 -0.0003312643440867384
0.005334178529219722 -0.001281990716240928 -0.0003704648133496387
0.005388394430866287 -0.001083783578167634 -0.0003991386943187405
0.005429442043504033 -0.0009119682333498583 -0.0004188740735640989
0.005459222145427006 -0.0007631707574303908 -0.0004311455076111167
0.005479670205136005 -0.0006344072729243573 -0.0004374389185880527
0.005492690961556182 -0.0005230477269206535 -0.00043896842820655
0.00550009297423745 -0.000426778208242166 -0.0004368858698805785
0.005503618406911063 -0.0003435706240152095 -0.0004322726033438884
0.005504911219397379 -0.0002716555005850445 -0.0004258139729393745
0.005505504236799796 -0.0002094919733881408 -0.0004181264912088267
0.005506875186687526 -0.0001557443501195104 -0.000409700347685084
0.005510429727373521 -0.0001092637582157281 -0.0004007919253219994
0.005517521290653037 -6.906787737817151e-05 -0.0003917672463973211
0.005529490136525603 -3.432877574649874e-05 -0.0003829529627797514
0.005547651219663914 -4.363535270095979e-06 -0.0003746576041039135
0.005573323407015139 2.137552775479221e-05 -0.0003673012141288661
0.005607849082478886 4.330404156863194e-05 -0.000361189362116223
0.005652598723080837 6.17067555908579e-05 -0.0003565787456037233
0.005709008655856232 7.673862799417612e-05 -0.0003536152732672275
0.005778595922925466 8.842005624746691e-05 -0.0003522223249501103
0.005862987102895753 9.663215177529072e-05 -0.0003522405649811321
0.005963958232970556 0.0001011103708802827 -0.0003533330537969733
0.006083444637498174 0.0001014334668707438 -0.0003550763121208109
0.006223592279051345 9.701464375983718e-05 -0.0003571132674136006
0.006386786322958759 8.708758986170057e-05 -0.0003590039279582494
0.006575665837249381 7.068659184009772e-05 -0.0003604028107099405
0.006793202594011255 4.662603095312426e-05 -0.0003610499048752949
0.007042724276488638 1.347145227485635e-05 -0.0003604787452051
0.007327963561415489 -3.049925240035888e-05 -0.0003582263734818707
0.007653170787759876 -8.733883089524787e-05 -0.0003536333643028896
0.008023147174818356 -0.0001594839020487868 -0.000345590694761593
0.008443334839065517 -0.0002498163220506244 -0.0003329014424642734
0.008919941664493553 -0.000361730218734754 -0.000314063918792624
0.009459975544746466 -0.0004992004933381563 -0.0002872200035934225
0.01007134258701949 -0.0006668579682484999 -0.0002505365830019826
0.01076296333412668 -0.0008700678236601681 -0.0002019268915418721
0.01154481752230265 -0.001115004395683795 -0.0001388866924642809
0.01242804730445576 -0.001408726848792093 -5.859898501031734e-05
0.01342510221587704 -0.001759254359732469 4.243262731359127e-05
0.01454981371256886 -0.002175621120578255 0.000168776211765561
0.0158174713943298 -0.002667908853652918 0.0003259918461420596
0.01724492744548194 -0.003247239972370866 0.0005207675360391541
0.01885054173808706 -0.003925710015317645 0.0007613429650402498
0.02065399847793019 -0.004716229194101019 0.001057425354822624
0.02267605035903253 -0.005632257012280271 0.001420358603481708
0.02493797874213199 -0.006687404643149849 0.001863867795373962
0.02746070088144761 -0.007894880531735256 0.00240452351194381
0.0302635323282314 -0.009266753280298435 0.003062048406384414
0.0333623914576025 -0.01081303914926427 0.003859945290786681
0.03676718640214763 -0.01254063018166051 0.004825927405194455
0.0404783456270604 -0.01445211365455685 0.005991572380721949
0.0444825053976009 -0.01654458115487816 0.007391885650459474
0.04874736251876311 -0.01880863089543269 0.009064661212404117
0.05321609013742577 -0.02122774018501457 0.01104888195662889
0.05780227205917106 -0.02377820386592609 0.01338196234316843
0.0623866649248592 -0.02642970717590022 0.01609607228271916
0.06681755089996029 -0.02914627772042462 0.01921363562290715
0.07091705628307891 -0.03188681267310816 0.02274217657138545
0.0744964029642383 -0.03460340560900579 0.02666966896494447
0.07738389584460892 -0.03723434614987984 0.03096201656142246
0.07947257238334381 -0.0396865715383059 0.0355642688451901
0.08080589202732356 -0.04179888861423653 0.0404077425868042
0.08175671412119108 -0.04327094110229247 0.04542930336230617
0.08347395683660927 -0.04353246872259801 0.05062685489580846
0.08919832560791278 -0.04152385677418009 0.05626606519432671
0.1088784936310529 -0.03547144340144134 0.06392535298814754
0.1802380254905242 -0.02360093903687347 0.08462000161303268
0.541709172890729 -0.01035664616674025 0.2577047608455557
0.8206630350389793 -0.06858867562434533 -0.2455135763891395
0.3207128286698236 -0.08650427186935658 -0.02360233458629628
0.1826315416244162 -0.08644830390059051 0.004075782304323487
0.1186359804487707 -0.07966548184819117 0.0112742934638245
0.08213154939073605 -0.07089369750330497 0.01356455725645109
0.05897070988809014 -0.06210729402220438 0.01401982031831413
0.04331403572619921 -0.0540304360968984 0.01362631814499051
0.03230374287216319 -0.04686819233565697 0.01280254092162232
0.02437392873902997 -0.04062203882894837 0.01176204373272426
0.01858854255462032 -0.03521855753342268 0.01062782900048777
0.01434724002124741 -0.03056146679499675 0.009475573872715085
0.0112428707304412 -0.02655282631150572 0.00835283182304571
0.008987306355907136 -0.02310158681572863 0.007289031842853069
0.007370167678963304 -0.02012669176924143 0.006301329067973264
0.006234395263111915 -0.01755772214919581 0.005398391153508696
0.005460960266607886 -0.01533440777670475 0.004583084953929517
0.004958777610373115 -0.01340565730100997 0.003854585960811549
0.004657731007285192 -0.01172840889395943 0.003209736322215405
0.004503693898854427 -0.01026647950256182 0.002643679856215043
0.004454895754143806 -0.008989499411864778 0.00215040813931835
0.00447918702840794 -0.007871958883849216 0.001723446947169832
0.004551908429518537 -0.006892389693019999 0.001356293429986973
0.004654292994321661 -0.006032660259612467 0.001042504976993346
0.004772272360307029 -0.00527739179795358 0.0007760258570757575
0.004895487840526493 -0.004613475938769444 0.0005514088774120409
0.005016491206418584 -0.00402967550816763 0.0003636345317144255
0.005130151988233753 -0.003516297231998115 0.0002079010671491029
0.005233155815285443 -0.003064940166765126 7.982081572128948e-05
0.005323541302019375 -0.002668284257477342 -2.454091113359029e-05
0.005400382797653646 -0.002319916280636792 -0.0001088890967368058
0.005463558287984344 -0.002014193947821903 -0.0001763973845864938
0.005513515529413086 -0.00174613523356126 -0.0002296485666854891
0.005551119835706708 -0.00151132335956277 -0.0002708697809276606
0.005577565966070873 -0.001305837078018594 -0.0003019320510799944
0.005594259644526168 -0.00112619374194687 -0.0003243500572178466
0.005602713652204585 -0.0009692969622080236 -0.0003395294421914648
0.005604515189956427 -0.0008323945696325009 -0.0003488815266475541
0.005601255561150307 -0.0007130463706219788 -0.0003535711172601007
0.005594463344608088 -0.0006090891013726025 -0.000354708780258154
0.005585626431862321 -0.0005186102954293623 -0.0003533372126535749
0.005576158936717522 -0.0004399282234891806 -0.0003501322190757676
0.005567388670955644 -0.0003715683612892134 -0.0003457040215832672
0.005560606340832143 -0.0003122455285813234 -0.0003405278514886546
0.005557046909701035 -0.0002608510264224915 -0.0003348547959582693
0.005557908520596321 -0.0002164359036763433 -0.0003290397777211342
0.005564385609068523 -0.0001782009117680968 -0.000323392979144401
0.005577655694729227 -0.0001454891445139865 -0.0003182204004715901
0.005598907438357737 -0.0001177767126369437 -0.000313939625217574
0.005629355421285995 -9.466851295454572e-05 -0.0003108537537075488
0.005670243864746323 -7.5896317216399e-05 -0.0003092315978153329
0.005722882554163451 -6.131588716619575e-05 -0.0003092306872840717
0.005788657486243623 -5.091018272683454e-05 -0.0003107906433085153
0.005869058721912032 -4.479477198553319e-05 -0.0003137850810116708
0.005965717933113796 -4.322346443346601e-05 -0.000317913846820823
0.006080415602055232 -4.659905107186054e-05 -0.0003228034576008618
0.006215131043148831 -5.548479538921869e-05 -0.0003281603918008522
0.006372066756710842 -7.061923716257703e-05 -0.0003336105762794764
0.006553660231207099 -9.293450814492883e-05 -0.000338886997255118
0.00676265860216649 -0.0001235754502171697 -0.0003438154526582695
0.007002134476677552 -0.0001639259667414022 -0.0003480220934962098
0.007275529754522431 -0.0002156409857013604 -0.0003511552170185252
0.007586761231503291 -0.0002806810432593466 -0.0003526905105296555
0.007940246510196461 -0.0003613573715792996 -0.0003516882404907496
0.008340988504077848 -0.00046038156310976 -0.0003471590897778327
0.008794695377137837 -0.0005809195452182444 -0.0003378649936766062
0.009307813107581652 -0.0007266498043118236 -0.0003222696337789967
0.009887620209226271 -0.000901825754118824 -0.0002989078198529752
0.01054234439160754 -0.001111337244393421 -0.0002661399017768067
0.0112812136850656 -0.001360767383076474 -0.0002219831139775534
0.0121145625822558 -0.001656445048672426 -0.0001642024236982055
0.01305398917407233 -0.002005489133842589 -8.998846130692111e-05
0.01411245687363775 -0.002415826696775274 4.427532910921554e-06
0.01530440476088311 -0.002896186017321959 0.0001237084401109243
0.0166459023862599 -0.003456045710098187 0.0002735251374211015
0.01815467455097996 -0.0041055176460964 0.0004609568745243272
0.01985002082394288 -0.004855138321642089 0.0006944442655541947
0.02175267916680453 -0.005715551184229763 0.0009839978620807285
0.02388443634703396 -0.00669704346208591 0.001341941253014149
0.02626741388129225 -0.007808919507219687 0.001783442840694217
0.02892301378724644 -0.009058676976087945 0.002326943355801453
0.03187029722878403 -0.01045099089531322 0.002994889294184879
0.03512351661038002 -0.01198651259282786 0.003814283647821002
0.03868870897774586 -0.01366053079386905 0.004816532475317687
0.04255929087159858 -0.01546159169453047 0.006037222591043397
0.04671060776533866 -0.01737028679708207 0.007515620163727287
0.05109380988101634 -0.01935841251802291 0.009293119628049259
0.05563004123599422 -0.02138877402967181 0.011410406253788
0.06020642082046253 -0.02341584269934288 0.01390346943628939
0.06467598221762927 -0.02538723245403491 0.01679845859917332
0.06886464716368257 -0.02724551941570385 0.02010556573881193
0.07258923285856821 -0.02892912082039488 0.0238132059220236
0.07569166846855432 -0.03036994933435714 0.02788437623815842
0.07809808253798231 -0.03148439997238661 0.03225722569510912
0.07992327447763189 -0.03215335361775609 0.03685264603456938
0.08167761875594674 -0.03218748414347625 0.04159624581964828
0.08474559191608598 -0.03128131175219266 0.046481272378182
0.0926869910611634 -0.02899234479882242 0.05179284991175919
0.1155242298928529 -0.02490435936959529 0.05917738517019424
0.1891158231771993 -0.01949707619262279 0.07960186499678663
0.5411613959139671 -0.0173540903296446 0.2487178791513873
0.7830131395167261 -0.0506587302852741 -0.2419748746381762
0.3115142410879526 -0.07200330771602054 -0.0289630198728155
0.1843924800320736 -0.07656223633807339 -0.001527471978957016
0.1249977735390783 -0.07376065374492456 0.006635227560453941
0.08999258902935198 -0.06772763718764153 0.01001776257110996
0.06688879942304907 -0.06062030889682073 0.01141409701061876
0.05068000055313952 -0.05351135421702846 0.01175784580021596
0.03890361873924126 -0.046885419475155 0.0114869609058685
0.03017389466818286 -0.04092526068471641 0.01085167661593389
0.02363309354429963 -0.03566569589565723 0.01001040849377051
0.0187113187097814 -0.0310729209780919 0.009067998689822315
0.01500933268469461 -0.02708457247525074 0.008094551306709889
0.01223645741134018 -0.02362972732879701 0.007136397935627111
0.01017521059549607 -0.02063864290743113 0.006223134118104564
0.008659833512341637 -0.0180471985400741 0.005372474525057657
0.007562480429542784 -0.01579857691569145 0.00459380430716663
0.006783843570370905 -0.01384353998619132 0.003890947019410309
0.006246483333782346 -0.01213999456632376 0.003264033662679215
0.005889932028332093 -0.01065224929228103 0.002710528451441591
0.005667025812232198 -0.009350178094915305 0.002226045313433633
0.005541085926635526 -0.008208392560031095 0.001805214666705849
0.005483686407913008 -0.007205490630525151 0.001442278748497893
0.005472944305861424 -0.006323383301097196 0.001131316101897749
0.005492217612214029 -0.005546725105520284 0.0008666287280414571
0.005529026190749541 -0.004862438920578417 0.0006429928473202749
0.005574175159743654 -0.004259318816923131 0.0004555399874723728
0.005621087822501378 -0.003727699546338106 0.0002995973227103186
0.00566524369986751 -0.003259201492090295 0.0001708656706176348
0.005703673863064778 -0.002846516692967135 6.545437713214513e-05
0.005734605233552454 -0.002483233618976554 -2.03081830401399e-05
0.00575719464335345 -0.002163701729840212 -8.956987490128687e-05
0.00577127355921834 -0.001882922950407914 -0.0001448882092200946
0.005777175610792843 -0.001636456146680889 -0.0001884382430138429
0.005775627512661706 -0.001420349104099915 -0.0002220242104904836
0.005767621498075426 -0.00123108411096264 -0.0002471130830577209
0.005754306222461433 -0.001065527994832591 -0.0002650604643674378
0.005736942028017554 -0.0009208902010827264 -0.0002772170653738869
0.005716826104925498 -0.000794690810469569 -0.0002847167397917858
0.005695224979522895 -0.0006847254673765205 -0.0002886503749649622
0.005673387367377962 -0.0005890389681685957 -0.0002900403300636458
0.005652508708329872 -0.0005059067237796203 -0.0002895686831959994
0.005633719322655465 -0.0004338130652222993 -0.0002878507803363236
0.00561812661632359 -0.0003714346814467778 -0.0002853547843579224
0.005606795394251516 -0.0003176295844046107 -0.0002823363630693182
0.005600767547120757 -0.0002714218075269155 -0.000279148682836126
0.005601089798552164 -0.0002319912730215937 -0.000276089781684829
0.005608799804480443 -0.0001986666331307548 -0.0002734645830274162
0.005624954379804703 -0.0001709157212805422 -0.0002716865219420928
0.005650639295387439 -0.0001483402129179663 -0.0002710491326312476
0.005686971914117243 -0.0001306739097605442 -0.0002718279997661187
0.005735136167048164 -0.0001177790781337134 -0.0002741915343023085
0.005796388111888776 -0.0001096486687857336 -0.0002780938823445473
0.005872082384713184 -0.000106411705533791 -0.0002834422929410558
0.005963707946821128 -0.0001083379821333302 -0.0002899732472036502
0.006072890888934919 -0.0001158494920224728 -0.0002973530612883403
0.006201442557005614 -0.0001295343433343724 -0.0003053400170304781
0.006351381971995811 -0.00015016123328045 -0.0003136144291765609
0.006524944675020617 -0.0001786972904382995 -0.0003219649690815745
0.006724652894652305 -0.0002163290927729735 -0.000330277666527457
0.00695332741619086 -0.0002644877814201282 -0.0003382513986700038
0.007214127887090803 -0.0003248774540368157 -0.0003456169165444452
0.007510650383428518 -0.0003995080968499033 -0.0003519502697315127