# OOMMF: rectangular mesh v1.0
# Segment count: 1
# Begin: Segment
# Begin: Header
# Title: 
# Desc: time = 1.7087401393604814e-10
# Desc: stepsize = 4.1370397222449473e-13
# Desc: step = 360
# meshunit: m
# valueunit: (none)
# valuemultiplier: 218581.4417954033
# xmin: 0
# ymin: 0
# zmin: 0
# xmax: 4e-07
# ymax: 1e-07
# zmax: 4e-09
# ValueRangeMaxMag: 1
# ValueRangeMinMag: 0.003880076120345138
# meshtype: rectangular
# xbase: 2e-09
# ybase: 2e-09
# zbase: 1e-09
# xstepsize: 4e-09
# ystepsize: 4e-09
# zstepsize: 2e-09
# xnodes: 100
# ynodes: 25
# znodes: 2
# End: Header
# Begin: Data Text
0.8317193652272576 -0.5370096672131517 -0.1409365245924517
0.2492807381773659 -0.3668247192826492 0.06774729353635513
0.1170066063874338 -0.2947973632098777 0.08236417191682008
0.06281043034962296 -0.2490745130811849 0.07904644428452133
0.03479918085368876 -0.2136243926253729 0.07224721462726352
0.01864310777891211 -0.1839904400270941 0.06472003222934188
0.008816511551866218 -0.1585435460216598 0.0573028964520455
0.002722474438615524 -0.1364870512763702 0.05031003132868771
-0.001027802122364764 -0.1173116901960854 0.04386363867380837
-0.003246381224292499 -0.1006289223509367 0.03800174515487519
-0.004439293934137905 -0.0861158098487028 0.03272126356359292
-0.004936756269517158 -0.07349491990219448 0.02799800276390184
-0.004961687725851057 -0.06252542939323395 0.02379727216344616
-0.004668450948236626 -0.05299781122424992 0.02007972911321577
-0.004165971898800826 -0.04472977073544698 0.01680436910211199
-0.003532135104319764 -0.03756272323504049 0.01393062722960627
-0.002823105748575764 -0.0313586255280409 0.01141988227987723
-0.002079532477354289 -0.02599716894258923 0.009235848197641781
-0.001330757400195414 -0.02137332601316525 0.007344525452858961
-0.0005977733305642351 -0.01739513992658036 0.005714572267030055
0.0001046610402143336 -0.01398187691093135 0.004317266620160006
0.0007665525497341479 -0.01106257326759483 0.003126083614296562
0.00138154320554433 -0.008574774440980877 0.002116796728787509
0.001945978680691853 -0.006463391213193195 0.001267477444684869
0.002458267918224487 -0.004679801300234192 0.0005581679822430506
0.002918421763329504 -0.003181094921774849 -2.912275800782559e-05
0.003327613872414418 -0.001929340617192345 -0.000510309919535368
0.003687879070486973 -0.0008910041608682541 -0.0008997649376836527
0.004001926544506818 -3.646289464858037e-05 -0.001210349887648608
0.004272907218373588 0.0006604564081218068 -0.001453365007757724
0.004504264257512505 0.001222835673830262 -0.001639038809595228
0.004699636780509121 0.001670938458800197 -0.001776492013878246
0.004862709187328433 0.002022532345923764 -0.001873657625634364
0.00499712373361884 0.002293134747775995 -0.001937562845102781
0.005106441996747709 0.002496210677626198 -0.001974351424433698
0.005194064776495417 0.002643449472373447 -0.00198912481842097
0.005263203896780624 0.00274494585960063 -0.001986312661232232
0.00531690666568296 0.002809380105392742 -0.001969674692217896
0.005358013517566934 0.002844231549682984 -0.001942203559325062
0.005389182827947614 0.002855897338430699 -0.001906618170886311
0.005412926976473744 0.00284982828610688 -0.001865150261261374
0.005431578286276413 0.002830651293563196 -0.001819650041707589
0.005447341998041578 0.002802242720283867 -0.001771879321833481
0.005462300857805988 0.002767806347139217 -0.001723181773820971
0.005478403833479926 0.002729954846874342 -0.001674764044014649
0.0054975229177081 0.002690754562762183 -0.001627652491345087
0.005521437417184764 0.002651780450506286 -0.001582543539675561
0.005551866354252816 0.002614183628017139 -0.00154006466395818
0.005590511950923836 0.002578703848290275 -0.001500561727776553
0.005639060987480338 0.002545718566473275 -0.001464198622904507
0.005699253335875375 0.002515264829563869 -0.001431005100205702
0.005772906397677232 0.002487019691439288 -0.001400720752735912
0.005861958087825131 0.002460320395630186 -0.001372977468063445
0.005968537703366343 0.002434120654533902 -0.001347124848269727
0.006094983757197884 0.002406942368453457 -0.001322257851592236
0.006243925637124311 0.002376839866936153 -0.001297292532350722
0.006418326560268519 0.00234129849445978 -0.00127071905611588
0.006621520824713909 0.002297150022790945 -0.001240830413841242
0.006857309646250739 0.002240476962197484 -0.001205571479602873
0.007129980175832119 0.002166463277562374 -0.00116241131793198
0.007444390369150753 0.002069263712572917 -0.001108614921932793
0.007806063403577878 0.001941846143392573 -0.001040817713197658
0.008221228155017059 0.001775766942656162 -0.0009551083197227268
0.008696967086046071 0.001560959175326735 -0.0008470369541046705
0.009241321280599082 0.001285459211383852 -0.000711031311870366
0.009863390979266614 0.0009350327894666369 -0.0005405797333409496
0.01057352811545785 0.0004928193744680925 -0.0003278624907114999
0.01138345363727312 -6.113607967147248e-05 -6.32465227820614e-05
0.01230638210531348 -0.000750441883181015 0.0002646013312767155
0.01335719799514149 -0.001602870577737677 0.0006691995746151296
0.01455252870134624 -0.002651007847136099 0.001166687091400698
0.01591079750208923 -0.003932919358103394 0.001775835635965121
0.01745229994032338 -0.005492771224251933 0.00251857098025844
0.01919911622749513 -0.007381547930551263 0.003420671791712655
0.0211749430511698 -0.009657750583384403 0.004511939986889752
0.0234048637736976 -0.01238798657822957 0.005826970595733851
0.02591479208274468 -0.01564753799343395 0.007406044549716791
0.02873061438524066 -0.01952078055594412 0.009295314573768691
0.03187700759012083 -0.02410120280757851 0.01154746960030269
0.0353756597646961 -0.02949106345340281 0.01422222589191846
0.03924282172943056 -0.03580054876646405 0.0173859391951287
0.04348618927496407 -0.04314617779359698 0.02111126633712962
0.04810098905840901 -0.05164844846120018 0.02547671622146151
0.05306539449638375 -0.06142866228383655 0.03056478536355635
0.05833556245227519 -0.07260495608561998 0.03645933712433094
0.06384051374857919 -0.08528770836933548 0.04324263905733936
0.0694776221841386 -0.09957442400362009 0.05099089881315391
0.07510991753595836 -0.1155441338670018 0.05976851760777899
0.08056605184578061 -0.1332514993401839 0.06962212469571009
0.08564359560974727 -0.1527204295377163 0.08057486898262899
0.09011622365669006 -0.1739358481966564 0.09262154578992106
0.09374432551254852 -0.1968305123474004 0.1057260565807342
0.09628756750632207 -0.2212603270109345 0.1198215502350101
0.09751926308089001 -0.2469532041942303 0.1348127347223336
0.09725059442839765 -0.2733950590018619 0.150581012561408
0.09540652116611856 -0.2995531400196015 0.16699859622206
0.09234775534230556 -0.3231103010352507 0.1839918964744448
0.09050509024969187 -0.3378600340353364 0.2019658877611786
0.105831683581476 -0.3214096441122057 0.226272448588665
0.332977607522711 -0.1329444749656991 0.3579928424560873
0.8782817461907934 -0.1882571672106319 -0.2412611014405908
0.3095032601822622 -0.1716053299583168 -0.007158261741290998
0.1561005163410492 -0.1427857110692099 0.01804175614317067
0.09140070618992742 -0.119516695265947 0.02217264342961578
0.0576073520675531 -0.101214982607358 0.02202992271255796
0.03764805539634145 -0.08633607628701111 0.02064802576760721
0.02497026087867347 -0.07393220205272653 0.01886041967882986
0.01657562362311065 -0.06344404939717888 0.01696372386717055
0.01090111075272871 -0.05450838765424252 0.01508605060256389
0.007046355656403483 -0.04686318875205627 0.01329075695593672
0.004451670817612371 -0.04030468024992781 0.01161093756663304
0.002748735176581712 -0.03466741903445825 0.01006298274019447
0.001684764766820215 -0.02981415886961311 0.008653248285187209
0.001080814744396101 -0.02562990989833314 0.00738173424640428
0.0008073143328152247 -0.02201789714847491 0.006244003795453205
0.0007689323387564883 -0.01889648005431305 0.005232927130049545
0.0008947417315201957 -0.01619666031598977 0.004340206495928431
0.001131606543388719 -0.01386000278480149 0.003556917961355576
0.001439643369895067 -0.01183689479261625 0.002873683771818196
0.001788961780838921 -0.01008508614685863 0.002281304349939592
0.002157245582565164 -0.008568471513456575 0.001770950492862249
0.002528047485342825 -0.007256094229217299 0.00133395197821126
0.002889495586147015 -0.00612132065588749 0.0009621110790648687
0.003233206847475726 -0.005141154060517706 0.0006478541662565579
0.003553506431276636 -0.00429566895154438 0.0003840675354800745
0.003846878306945889 -0.003567543012811836 0.0001642873343456096
0.004111443488068074 -0.002941663068698974 -1.705555141822862e-05
0.004346571741781023 -0.0024048063243921 -0.0001650922162199651
0.004552639874876873 -0.001945378813649784 -0.0002844411012687048
0.0047307466017237 -0.001553196068482945 -0.0003790579221891679
0.004882505930748486 -0.001219302336994747 -0.000452676499895447
0.005009926854494889 -0.0009358245907802762 -0.0005086914700856086
0.005115243583683969 -0.0006958443145338107 -0.0005500220838850098
0.00520079794322634 -0.0004932897133215666 -0.0005793326969572625
0.005268999147952104 -0.0003228405873569512 -0.0005989590578834925
0.005322232486191333 -0.0001798397550410855 -0.0006106862686442551
0.005362807968194455 -6.021579433318715e-05 -0.0006160703728875683
0.005392985183047633 3.958254664246511e-05 -0.0006163810515824354
0.005414913323458468 0.0001226484528134982 -0.0006124637102777184
0.00543063810777661 0.0001916683051928141 -0.0006052123019341107
0.005442133684221861 0.0002489656223610443 -0.0005953073460831912
0.005451251746559339 0.0002965418312241705 -0.0005833094136592627
0.005459765243007903 0.000336109346604196 -0.0005699376187515985
0.005469369962821004 0.0003691185299708727 -0.0005556922444866604
0.005481664734784783 0.0003967841574355087 -0.0005411433303359054
0.005498203713956317 0.0004201045792536104 -0.0005268486964812565
0.005520480713546084 0.0004398791583764767 -0.0005131746181022331
0.005549953728159895 0.0004567261567269762 -0.0005005625344534491
0.005588083182683196 0.0004710932724460319 -0.0004892653308787847
0.005636330318629981 0.0004832666745242192 -0.0004794578505263606
0.00569621365381013 0.0004933774928988095 -0.0004712788244659577
0.005769328422661874 0.0005014008262237728 -0.0004646445474705939
0.005857381334411465 0.0005071527032840535 -0.0004594719799237684
0.005962248358762239 0.000510281389837482 -0.0004554872631295714
0.006085987169392457 0.0005102525390691254 -0.0004522692741774455
0.006230907193887546 0.0005063294666656594 -0.000449373828584411
0.006399599977244467 0.0004975458454550793 -0.0004460781023919904
0.006594970854508267 0.0004826731759703916 -0.0004416734423463555
0.006820321951183385 0.0004601796307094668 -0.0004353580705944081
0.007079358807279343 0.0004281835215741652 -0.0004261324933015044
0.007376268915337741 0.0003843996946842718 -0.0004131578067065209
0.007715795834681984 0.0003260750527768674 -0.0003953671670745289
0.008103261605843161 0.000249917575602329 -0.0003716057347942689
0.008544699179598754 0.0001520143868332037 -0.0003407309462439276
0.009046919682392443 2.773258655585846e-05 -0.0003010909776377326
0.009617587154847593 -0.0001283891754977957 -0.0002508109200484787
0.01026538419827207 -0.0003227680126603358 -0.0001875569351803089
0.01100008355360343 -0.0005629228203051289 -0.0001081672011021929
0.01183265752389595 -0.0008576292975748066 -8.942533711418081e-06
0.01277543520760383 -0.001217083299390737 0.0001146206329974903
0.01384215038109186 -0.001653071279175574 0.000268053092674412
0.01504800731195487 -0.002179125374656751 0.0004576756897915345
0.01640976493699716 -0.002810662421386955 0.0006908524379352032
0.01794565992073627 -0.003565096119644411 0.0009764510946817654
0.01967529745527685 -0.00446189669167553 0.001324739547854528
0.02161949687111702 -0.005522579778538293 0.001747905243795977
0.02379983163132647 -0.006770610318136605 0.002260727128313901
0.02623796341002974 -0.008231171429080589 0.002880554323404051
0.0289547153395895 -0.009930766153011044 0.00362786294301466
0.03196857395705151 -0.01189662547301714 0.004526767696995378
0.03529359832445091 -0.01415590458401747 0.005604799302048203
0.03893670117061206 -0.0167346571613364 0.006892997962591604
0.04289410051205876 -0.01965663715417416 0.008426244456517221
0.04714702239062828 -0.02294201680235887 0.01024245771935734
0.05165688345515673 -0.02660617609500784 0.01238135598409275
0.05636017287627736 -0.03065871860823232 0.01488319955270046
0.06116387409458519 -0.03510284054304692 0.01778622219491453
0.06594274241426402 -0.03993504264908937 0.02112280288832106
0.07053961080969394 -0.04514485651890937 0.02491528983462897
0.07477017975923997 -0.0507136795657905 0.0291717630547053
0.0784342043798219 -0.05661072518655998 0.03388222744639968
0.08133493198000623 -0.06278243128472021 0.03901693976626222
0.08331013750560079 -0.06912859983178656 0.04452778419743376
0.08428613332730681 -0.075452021995431 0.05035365427505073
0.08439374474340439 -0.08135234758139979 0.05643458075621581
0.08428266596118184 -0.08599173781243183 0.06275356385449775
0.08616165521681135 -0.08753440184520624 0.06949832494164852
0.09801321104390309 -0.08171053451508803 0.07794691942995954
0.1560402966460185 -0.05859223222268661 0.09816880593226102
0.5168822476565843 -0.007104565267877108 0.2709027252047208
0.8542537036915849 -0.1031774042433513 -0.2474195701500902
0.3232149737765871 -0.1127704061174208 -0.017780013756253
0.1747733738735699 -0.1037379172825873 0.009471821230250943
0.1081064934381858 -0.09076928017811742 0.01541391274744038
0.07171705750646143 -0.07832708527523984 0.01658877571339547
0.04953070947876743 -0.06738180468051387 0.01619680744867944
0.03502876639977734 -0.0579664414014077 0.01518596013161803
0.0251286050732485 -0.04991141816938012 0.01391681244667511
0.01819664513036186 -0.04302619639658549 0.01255501222054735
0.01328332478164253 -0.03713803033160689 0.01118838025223531
0.009793638823540863 -0.03209727776524352 0.009867474668178349
0.007332171445135751 -0.02777586291006318 0.008621867769774052
0.005624245486577701 -0.02406475891848466 0.007468155051435163
0.004472721530536972 -0.02087154963125415 0.006414406295121782
0.003732739447200528 -0.01811819651042968 0.005462580094546252
0.003296098041375411 -0.01573900289455451 0.004610613606030528
0.003081064966023818 -0.01367877941409067 0.003854252022005563
0.003025463910142073 -0.01189119845598499 0.003187859662279693
0.003081869295442725 -0.01033735806798329 0.00260476541690648
0.003214113018810148 -0.008984550287204188 0.002097995833909908
0.003394658731692144 -0.007805206803441931 0.001660584433819055
0.003602713713095887 -0.006776021437354272 0.001285459684162764
0.003822783791422413 -0.005877213915468024 0.000965792278519299
0.004043462759145395 -0.005091921727679159 0.0006951773368468035
0.004256545070912322 -0.004405702955408996 0.0004675255085352963
0.004456389226723026 -0.003806130878501217 0.0002772851142315147
0.004639325409719515 -0.003282454956672842 0.0001197027434313138
0.004803203961285131 -0.002825328860506874 -9.608501164497492e-06
0.004947102755810117 -0.002426594375386787 -0.0001145958697007155
0.005071005119418393 -0.002079103983254434 -0.0001986128886422961
0.00517555871864989 -0.00177657190155312 -0.0002648433968387378
0.005261927587565561 -0.001513457680343719 -0.0003161982733086275
0.005331605289688167 -0.001284868655378229 -0.000355181433810282
0.005386280912811488 -0.001086480526135113 -0.0003840849408981056
0.005427785646812116 -0.0009144720279502136 -0.0004049167201120256
0.005457994572897239 -0.0007654679699574049 -0.00041918110118913
0.005478765965135511 -0.0006364882447853711 -0.0004281735444422563
0.005491957558032235 -0.0005249074587063231 -0.0004329277932996965
0.005499363015001046 -0.0004284163241818047 -0.0004340806029650431
0.005502711428013496 -0.0003449874806661344 -0.0004323251115175698
0.005503693003606228 -0.0002728486392819142 -0.0004281702957201428
0.005503906148488665 -0.0002104556679554196 -0.0004220392801466437
0.005504895041701908 -0.0001564693593721548 -0.0004145353397975175
0.005508147364759326 -0.0001097392505056627 -0.0004060810151438475
0.00551507277245542 -6.928519607553272e-05 -0.0003971979549931301
0.005527050258465211 -3.428583647045644e-05 -0.000388415605658995
0.005545411279011134 -4.070146617695681e-06 -0.0003800993828775311
0.005571462508311204 2.189387483899155e-05 -0.000372701899197248
0.005606519708102984 4.400340136207243e-05 -0.0003664947396492874
0.005651904879664788 6.252436384237046e-05 -0.0003616842150163902
0.005708999550944257 7.759617143204035e-05 -0.0003584419489031356
0.005779260169809222 8.922900107340864e-05 -0.0003567190168980182
0.005864249987999484 9.730190717943739e-05 -0.0003564750008112009
0.005965692416697544 0.0001015580929773291 -0.0003574834280977888
0.006085478828214141 0.0001015935678460519 -0.0003593796308313611
0.00622573345807961 9.684422029259269e-05 -0.0003617954462255693
0.006388839301449747 8.656803887100758e-05 -0.0003641094821181682
0.006577464036302883 6.98232526196626e-05 -0.0003657428375426631
0.006794636739324724 4.544074679861791e-05 -0.0003660698988534417
0.00704375053297141 1.199333134131632e-05 -0.000364318036527498
0.007328633001396868 -3.224122301260361e-05 -0.0003599219608792624
0.007653613364291361 -8.932525755177933e-05 -0.0003521622726931303
0.008023539747322462 -0.0001617082004191188 -0.0003402935764414136
0.008443899285589225 -0.0002522822935070718 -0.0003236434147344505
0.00892087714516179 -0.0003644485748297861 -0.0003011283763951199
0.009461423594086216 -0.0005021813808858956 -0.0002715195097954918
0.01007340509439345 -0.0006701062782869969 -0.0002332298972987898
0.0107656704116188 -0.0008735832741261001 -0.0001839944714698962
0.01154815816739681 -0.001118785808841736 -0.0001211517817159562
0.01243205066587597 -0.001412782938749507 -4.141746699963712e-05
0.01342983345166258 -0.001763615143633399 5.928786596920157e-05
0.01455538336255446 -0.002180344085869348 0.000185603111352314
0.01582407889617287 -0.002673081152076101 0.0003429563765425076
0.0172527713470708 -0.003252975433015627 0.0005379757468399509
0.01885974583192417 -0.003932133753184765 0.0007783984677772623
0.02066464876568351 -0.004723462582662943 0.001073596929231001
0.02268814207145178 -0.005640412759067346 0.001435213526859739
0.02495138952652728 -0.006696579214469635 0.001877181725889219
0.02747529914587116 -0.0079051471137985 0.00241634549812223
0.03027920958676561 -0.009278163811673113 0.003073012344248897
0.03337899245234588 -0.01082562434215244 0.003870851805300107
0.03678448913162 -0.01255438647192185 0.004837178612867207
0.04049602918057996 -0.01446699038840667 0.00600345293345184
0.0445000681907137 -0.01656047780076686 0.007404669161143896
0.0487641232025714 -0.0188253980699834 0.009078341505423648
0.0532312168097747 -0.02124518712342245 0.01106334385222753
0.05781475368077359 -0.02379611615244987 0.01339725657926506
0.06239535904439679 -0.02644787137752451 0.01611229766242034
0.06682129779276902 -0.02916451140345121 0.01923067957055071
0.07091473074994424 -0.03190500144337239 0.02275961889247707
0.07448696942815816 -0.03462153878040392 0.02668668513641756
0.07736652479088192 -0.03725253797461336 0.0309775210856348
0.07944672856039665 -0.03970506219230271 0.03557726575068326
0.08077138541997313 -0.04181803442558623 0.04041741852709092
0.08171364720957502 -0.04329121387155981 0.0454347632318004
0.08342224707443495 -0.04355448668237144 0.05062718478857872
0.08913651086306024 -0.04154847210047088 0.05626064410108081
0.108801018255234 -0.03549989907824959 0.0639134404791882
0.1801255592723982 -0.02363500888980401 0.08459709072466069
0.5414607541737226 -0.01039905749106406 0.2576199389698092
0.8202244132941975 -0.06861233968334253 -0.2454033036783094
0.3205594570382619 -0.08655793553639483 -0.02360761793912146
0.1825679537806544 -0.08651765843839204 0.004060774941262807
0.118610965614161 -0.07974101116578841 0.01126300288129332
0.08212353919363273 -0.07096885760606449 0.01355905064934441
0.05896949807065332 -0.06217821123129832 0.01401939671578612
0.04331467584158206 -0.05409518113721186 0.01362980396566694
0.03230388349535523 -0.046926072827295 0.01280888599745495
0.0243725849706649 -0.04067308262841674 0.01177028184769473
0.01858545030788232 -0.03526317577359144 0.01063716115373202
0.01434246249225742 -0.03060024722455372 0.009485451548284623
0.01123659197446086 -0.02658641677129875 0.008362894139296679
0.008979759294529608 -0.02313063416941377 0.007299120792948755
0.007361615037949171 -0.02015180624407963 0.006311564443569258
0.006225121194187188 -0.01757945427884535 0.005408902431022544
0.005451257767603905 -0.01535323914920562 0.004593861206720517
0.004948910247606151 -0.01342200108736065 0.003865576327593836
0.004647900286042136 -0.01174261507161174 0.003220814337062695
0.004494054430746906 -0.01027884444192926 0.002654604091906512
0.004445563196039067 -0.00900027701978218 0.002161159966842911
0.004470203857983157 -0.007881367063820298 0.001734354800237085
0.004543302992444606 -0.006900615519832421 0.001367713485425491
0.004646159782312581 -0.006039868000640379 0.001054805979902029
0.004764722780988874 -0.005283725194092062 0.0007894993707083441
0.004888598645977499 -0.00461905704388808 0.0005659160336261008
0.005010329738584662 -0.004034612371421365 0.0003786566816984276
0.005124738571530152 -0.003520692861960854 0.0002230702493270533
0.005228417478592987 -0.00306888965896348 9.487930834287014e-05
0.005319383737191088 -0.002671871403090349 -9.750807882742683e-06
0.005396723163510293 -0.00232321424225042 -9.40814231321772e-05
0.005460318597392481 -0.002017261081612586 -0.0001612096544910023
0.005510674175313579 -0.001749013184071582 -0.0002139722355867587
0.005548711348535729 -0.001514039702410869 -0.0002548151916648435
0.005575618091862702 -0.001308404153425791 -0.0002859686735997375
0.005592780185041789 -0.001128607464474855 -0.0003093871623092789
0.005601677676507654 -0.0009715424514144642 -0.0003265394841734226
0.005603817223321354 -0.0008344512961582047 -0.0003386694685833269
0.005600739945288052 -0.0007148921940985965 -0.000346753008058302
0.005593957648744967 -0.0006107072709846239 -0.0003513719655377888
0.005584946923053259 -0.000519991822177872 -0.0003531444425464938
0.005575169117645191 -0.000441071648069223 -0.0003525153416263643
0.005566018113575627 -0.0003724800329895658 -0.0003498595727577048
0.005558851905083514 -0.0003129371405358375 -0.0003457345901147469
0.005554986960070372 -0.0002613374416876361 -0.0003405457435616926
0.005555676193120292 -0.0002167335805958004 -0.0003348133099269212
0.00556215060968211 -0.0001783269941629509 -0.0003290750268284652
0.005575601783334709 -0.0001454622490093106 -0.0003237252197200913
0.005597203538079086 -0.0001176179247014751 -0.0003192460478765736
0.005628141944294948 -9.440416354782558e-05 -0.0003159411852040938
0.005669613020894692 -7.556011476466115e-05 -0.0003140520912212675
0.005722873314379444 -6.09494203456164e-05 -0.0003137747522638322
0.005789252249749452 -5.056357205473818e-05 -0.0003150811600595165
0.005870182814107376 -4.452338278033906e-05 -0.0003179468903473804
0.005967250393300345 -4.308321359868519e-05 -0.0003221568270274773
0.006082197570896072 -4.664272837972058e-05 -0.0003273611760003347
0.006216985526495638 -5.575740700787908e-05 -0.0003332130453089692
0.00637381619075676 -7.115426242375634e-05 -0.0003391307365154865
0.006555154566827232 -9.375167702681278e-05 -0.0003445914433099399
0.006763799990150266 -0.0001246820153374691 -0.0003490524473138951
0.007002885734420149 -0.0001653185040244905 -0.0003518592506366702
0.007275942797795087 -0.0002173074611890571 -0.0003525848217219138
0.007586961321577034 -0.0002826068184609667 -0.0003506919042292516
0.00794040493639009 -0.0003635274877093201 -0.0003456485089959785
0.008341321299769246 -0.0004627823232511037 -0.0003370134552943538
0.008795397823828642 -0.0005835423466603336 -0.0003239883325699207
0.009309026307370832 -0.0007294899354635871 -0.0003056541755324471
0.009889445585580794 -0.0009048827672736617 -0.0002807727509733389
0.01054481061961769 -0.001114616634514607 -0.0002475083952620699
0.0112843038076281 -0.001364280908366453 -0.0002036874284869689
0.01211829154723217 -0.001660215074435355 -0.0001466005604423412
0.01305840292757726 -0.002009552399298618 -7.286576843866695e-05
0.01411764449726413 -0.002420235847072055 2.13563775823895e-05
0.01531054299602391 -0.002901011952496072 0.0001405877782278922
0.01665317400236118 -0.003461376957998993 0.0002904114441204203
0.01816320085987029 -0.00411145104420022 0.0004774144725805346
0.01985989199998683 -0.004861771174642004 0.0007097396153361046
0.02176390022162443 -0.005722977729704337 0.0009976947664088701
0.02389690549967634 -0.006705342953775888 0.001353832879845574
0.02628102445309446 -0.007818146227536495 0.001793643656206966
0.02893768108015549 -0.009068859388387118 0.002336154593999451
0.03188589761528396 -0.01046212688766435 0.003003958797394447
0.03513987307148294 -0.01199855639300432 0.00382368425190541
0.03870554967452859 -0.01367338592677871 0.004826643742165776
0.04257616034889738 -0.01547511307066521 0.00604839452477498
0.04672686629031284 -0.01738428254074035 0.007527927095645023
0.05110865518193432 -0.01937265072366685 0.00930656212035084
0.05564246899551951 -0.02140299980103459 0.01142515871945593
0.06021526454595681 -0.02342980452342376 0.01391972848502309
0.06468001960274393 -0.0254007185208797 0.01681619498620498
0.06886264827114702 -0.02725840309028907 0.02012442646330565
0.07258002456087162 -0.02894140420278333 0.02383239705796184
0.07567427239104541 -0.03038179344559593 0.02790280964213319
0.07807182341437094 -0.03149613541342915 0.032273883583236
0.07988783865152685 -0.03216547418926224 0.036866669785305
0.08163299185544654 -0.0322006321636321 0.04160666882394135
0.08469155584175404 -0.03129626640160044 0.04648709267036294
0.09262188740888011 -0.02901002839260573 0.05179333188997082
0.1154422054697027 -0.02492587562070991 0.05917157605263727
0.1889970509899883 -0.01952384302973043 0.07958465773396779
0.5409016513631658 -0.01738901951517669 0.2486344463538415
0.7825405842476848 -0.05067519420956711 -0.2418543248690177
0.3113415688288096 -0.07204042698882379 -0.02896438578303297
0.1843173866152132 -0.07661328019675935 -0.001541421439751339
0.1249680149829488 -0.07382003845593742 0.006623297019266973
0.0899848654095672 -0.06779019526648485 0.01001088173309237
0.06689105926193212 -0.06068209767034587 0.01141215519364174
0.05068582986783846 -0.05356981815942731 0.01175993697601145
0.03890965881855702 -0.046939150305319 0.01149211032282995
0.0301785312458716 -0.04097366451999526 0.01085889306346414
0.02363570247509318 -0.03570870349612885 0.01001881413490688
0.01871177913133316 -0.03111077235017288 0.00907695506271715
0.01500775037674871 -0.02711767328052416 0.008103634602184879
0.01223304864030712 -0.0236585597390798 0.007145420780051578
0.01017026069950808 -0.02066370748191755 0.006232207181931324
0.008653673357413131 -0.01806897481995731 0.00538173896772936
0.007555460664057765 -0.01581750193656154 0.0046032809904486
0.006776287403167098 -0.01385999908466406 0.003900629439945801
0.006238646571391599 -0.01215432002726284 0.003273839307350136
0.005882012810930998 -0.01066472734942827 0.002720245818290055
0.005659175825765824 -0.009361059722133856 0.002235670589819828
0.005533381512204303 -0.008217896334149318 0.001815109693245778
0.005476183662232985 -0.007213802706451665 0.001452858196897433
0.005465758143547219 -0.006330666063982015 0.001142978459403968
0.005485480750072836 -0.0055531230012453 0.0008796570730322591
0.005522836569906549 -0.004868075177427452 0.0006572487148345353
0.005568611718477046 -0.004264298400943009 0.000470502206894252
0.005616176923093446 -0.003732119227954874 0.0003148471161176027
0.00566092108524703 -0.003263151585535491 0.0001860911842453527
0.005699853899949572 -0.002850080121820409 8.048216161452914e-05
0.005731214801005077 -0.002486487023928988 -5.187389044479827e-06
0.005754170408958635 -0.002166710173814944 -7.396043965225833e-05
0.005768608899391178 -0.001885735411448884 -0.0001286267626455673
0.005774918868371608 -0.001639107652023824 -0.0001716101667558204
0.005773822964363923 -0.001422859951279455 -0.0002051194782999142
0.005766292351190761 -0.001233457045281376 -0.0002310876757194185
0.005753437405340088 -0.001067752127577576 -0.0002509721204281412
0.005736434120309547 -0.0009229448139236549 -0.0002659819881688645
0.005716523319273362 -0.0007965490803758477 -0.000277050429697283
0.005694948142796333 -0.0006863637928347597 -0.0002847238552500696
0.005672944010966049 -0.0005904427579543185 -0.0002895627003431508
0.005651752742438555 -0.0005070722716468757 -0.0002919622762220266
0.005632571535665631 -0.0004347485011086245 -0.0002922581440093017
0.005616578114659015 -0.0003721568838454078 -0.0002909649608298105
0.005604921695426503 -0.0003181602973119164 -0.0002884755128787935
0.005598701055229267 -0.0002717842809029205 -0.0002853123888877506
0.005599000296593223 -0.0002322079579787693 -0.0002820268071347776
0.005606871000646527 -0.0001987588617600557 -0.0002790492258834661
0.00562335311113915 -0.0001709042673106718 -0.0002768953035124417
0.005649501408269274 -0.0001482480552429518 -0.0002759051557988559
0.005686384248505405 -0.0001305278709675367 -0.000276355217726376
0.005735131030104504 -0.000117610429037825 -0.0002784611605487184
0.005796941912867129 -0.0001094948781758721 -0.0002822122448709413
0.00587311745889291 -0.0001063146816235071 -0.0002875896137213762
0.00596510227268734 -0.0001083427394327489 -0.0002943783391701715
0.006074488336999631 -0.0001160031428185151 -0.0003022354288014142
0.006203073130421784 -0.000129880763185567 -0.0003108202627237243
0.00635287748375079 -0.0001507375936191441 -0.0003195776140497384
0.00652616635159521 -0.0001795320752497503 -0.0003280288202395314
0.006725514408929096 -0.0002174396490881478 -0.0003356944081913506
0.006953802458012442 -0.0002658791021445973 -0.0003420207973410873
0.007214276385821687 -0.0003265429834691601 -0.0003466979092928248
0.007510601931909465 -0.0004014334787075358 -0.0003493378515832561