# OOMMF: rectangular mesh v1.0
# Segment count: 1
# Begin: Segment
# Begin: Header
# Title: 
# Desc: time = 2.1400428297492974e-11
# Desc: stepsize = 5.479852192005066e-13
# Desc: step = 40
# meshunit: m
# valueunit: (none)
# valuemultiplier: 218601.7229098896
# xmin: 0
# ymin: 0
# zmin: 0
# xmax: 4e-07
# ymax: 1e-07
# zmax: 4e-09
# ValueRangeMaxMag: 0.9999999999999999
# ValueRangeMinMag: 0.003874139504607009
# meshtype: rectangular
# xbase: 2e-09
# ybase: 2e-09
# zbase: 1e-09
# xstepsize: 4e-09
# ystepsize: 4e-09
# zstepsize: 2e-09
# xnodes: 100
# ynodes: 25
# znodes: 2
# End: Header
# Begin: Data Text
0.831500051180431 -0.5373737117835554 -0.1396829319013509
0.2492490004654261 -0.3672831639313643 0.06902452961951851
0.1169954884785323 -0.2952248784951631 0.08350764514703767
0.0628028827836228 -0.2494544171725781 0.08004777504414221
0.03479174394011336 -0.2139576101009385 0.07312226353589962
0.01863514976565316 -0.1842821702411782 0.06548775037797494
0.008808133853232899 -0.1587998250897984 0.0579800950360613
0.00271388372256484 -0.1367135321939019 0.05091041111464027
-0.001036510702358101 -0.1175131473065326 0.04439802260647017
-0.00325525892632257 -0.1008091068945139 0.03847838167810413
-0.004448459552922268 -0.08627750431271462 0.03314647209272018
-0.004946335572367629 -0.07364015990693178 0.02837699701069887
-0.00497176107649048 -0.06265576471645767 0.02413466678122109
-0.004678961469081435 -0.0531146267400005 0.02037981520587007
-0.004176756698464 -0.04483445363005335 0.01707114472802565
-0.003543105418252271 -0.03765649800779038 0.01416752699178566
-0.00283428207933074 -0.03144242331019159 0.01162968532410771
-0.002090914590161265 -0.02607171278157032 0.009420942885776612
-0.001342274379694001 -0.02143920922088761 0.007507168568693908
-0.0006093191269795493 -0.01745288772414042 0.005856731226510146
9.321519613708156e-05 -0.01403201934614186 0.004440555379633495
0.0007553156181632054 -0.01110565515867283 0.003232067512806336
0.001370562720069535 -0.008611325756723971 0.002207056251314146
0.0019352767161639 -0.006493938089173023 0.00134352690287895
0.002447870251063684 -0.00470484757166589 0.0006215633484772784
0.002908347801911088 -0.003201074783890979 2.318862062381349e-05
0.003317911839565167 -0.001944635434836311 -0.0004677723288191874
0.003678650309847481 -0.0009019702072624459 -0.000865825681576773
0.003993287261136408 -4.344944051776168e-05 -0.001183935954162971
0.00426498307760338 0.000657057264791373 -0.001433648256165124
0.004497174542775137 0.001222558654489769 -0.001625204913011611
0.004693447518093903 0.001673275344235017 -0.001767656868084927
0.004857436654065974 0.002026938860552733 -0.001868969568020395
0.004992747620294545 0.002299056347407732 -0.001936123252706963
0.00510289844354421 0.002503150664588724 -0.001975207779354363
0.005191276816608601 0.002650976803764008 -0.001991511295389484
0.005261110930833202 0.002752716589984845 -0.001989603509401168
0.005315451580205046 0.002817154701580944 -0.001973412289812385
0.005357163715189769 0.00285183848939218 -0.001946295043157071
0.005388925742238114 0.002863219770150222 -0.00191110303451019
0.005413235298963781 0.002856782698001534 -0.001870240869838643
0.005432420171270463 0.002837158400873016 -0.001825718657694802
0.005448653490577652 0.00280822463560841 -0.001779199905971399
0.005463972303103973 0.002773194061176779 -0.001732041970603897
0.005480298967173905 0.002734690485101249 -0.001685332899371884
0.005499464797575566 0.00269481291262319 -0.001639920748928274
0.005523235765237848 0.002655188238196199 -0.00159643996646311
0.005553339892862785 0.002617015067865993 -0.001555330086000464
0.005591496405300214 0.002581094064744609 -0.001516852068285849
0.005639446560981367 0.002547849994487734 -0.001481096663819852
0.005698986394816713 0.002517341954244467 -0.001447990768508066
0.005772001500277607 0.002489263194718031 -0.001417295276337681
0.005860504302496588 0.002462928151952449 -0.001388600963169528
0.005966674077144725 0.002437250511273698 -0.001361314979422909
0.006092900318352925 0.002410704359960548 -0.001334644994011681
0.006241829923111395 0.002381274498682812 -0.001307572622803735
0.006416418882266308 0.002346389117175375 -0.001278823540004819
0.006619989078343533 0.00230283654129151 -0.001246824972373271
0.006856291017428006 0.002246660157438007 -0.001209658191090447
0.007129573135036411 0.002173035303916968 -0.001164995716893262
0.007444658523208103 0.002076116220614635 -0.001110030935332805
0.007807029757696958 0.001948858659094894 -0.00104138882437376
0.008222922468865301 0.001782807754686112 -0.0009550253400250594
0.008699428051326768 0.001567851558319395 -0.0008461031674640661
0.009244605672217406 0.001291931063609967 -0.0007088510523231764
0.009867603107496304 0.000940709704842924 -0.000536393435123616
0.01057878527679538 0.0004971874086060916 -0.0003205571992991214
0.01138986819723789 -5.873458612285379e-05 -5.164145908654007e-05
0.01231405437943498 -0.0007507483533713534 0.0002818431386502306
0.01336616344319653 -0.001606689875622579 0.0006934798549930099
0.01456274850455597 -0.002659148942927131 0.001199289220521028
0.01592218435498149 -0.00394612426293236 0.001818123371090618
0.01746470774283973 -0.005511723910409677 0.002572102272930521
0.01921238219739047 -0.007406879891331845 0.003487100573138086
0.02118894974223765 -0.009690053501674366 0.004593269541235161
0.02341951952272024 -0.01242788322301538 0.005925592123913533
0.02593002852514681 -0.01569571919968449 0.007524440694871706
0.02874639323808636 -0.01957795664752844 0.009436113431051388
0.03189325522169054 -0.02416808360686684 0.01171328930970282
0.03539221209052099 -0.02956831562812729 0.0144153365849364
0.0392594210943209 -0.03588870054178629 0.01760836715466363
0.04350247915849639 -0.04324556697978279 0.02136492185184927
0.04811654641741603 -0.05175920890626806 0.0257631155131117
0.0530797899651587 -0.06155073091611734 0.03088503456256218
0.05834832991753419 -0.0727381147460217 0.03681422576206787
0.06385106777651391 -0.08543161014856993 0.04363229821563144
0.06948523916860419 -0.09972852079871995 0.05141454675017394
0.07511381269481886 -0.1157075255034998 0.06022436960207648
0.08056548849500618 -0.1334228494984536 0.07010704162097847
0.08563794625959815 -0.152898035203786 0.08108419033611725
0.09010503164545933 -0.1741177720135898 0.09314959896333029
0.09372728985089043 -0.1970147765062768 0.1062667214282166
0.09626442033893885 -0.2214451348887397 0.1203686580116902
0.09748970346984713 -0.2471370516524641 0.1353605957350279
0.09721414115875412 -0.2735768069634714 0.1511251219841334
0.09536236527613458 -0.2997320963946882 0.167536054955808
0.0922945051535308 -0.3232864499142126 0.1845213892898499
0.0904397199005143 -0.3380347691249767 0.2024866695254627
0.1057449715767319 -0.3215879654420361 0.2267764283060129
0.3328217589895986 -0.1331392970384196 0.3583833693285216
0.877899833965621 -0.1883286346158234 -0.2399122886988168
0.3094497165875067 -0.1717322059320097 -0.005780874219663772
0.1561035097728716 -0.1429253202577535 0.01928260756984346
0.09141607508105855 -0.1196509281015735 0.02326428925795107
0.05762358263521059 -0.1013376982703609 0.02298762314696821
0.037661829025046 -0.08644590448148423 0.02149104773847384
0.0249808759667601 -0.07402968665335465 0.01960599511405245
0.01658328245263212 -0.06353044190778542 0.01762592017441082
0.01090625990283175 -0.05458508626891918 0.01567600936777659
0.007049422814275631 -0.04693147402614305 0.01381701504378492
0.004452997796887329 -0.0403656143623347 0.01208013388711631
0.002748545745698972 -0.03472184693758556 0.01048073326159501
0.001683175199621 -0.02986276490321412 0.009024645445434082
0.001077940768427486 -0.02567329351559421 0.007711571971183528
0.0008033694834421669 -0.02205661333443255 0.006536737683423264
0.0007641391898078316 -0.01893101680116362 0.005492385257374122
0.0008892307999405942 -0.01622741395856987 0.004569536915589041
0.001125480441673474 -0.01388729232760653 0.003758879642164989
0.001433031152039249 -0.01186099032341104 0.003050882363280497
0.001781992354304795 -0.01010622774273415 0.002436002449403948
0.002150050316366419 -0.00858688308423923 0.00190500336504693
0.002520739700643041 -0.007271989989383789 0.001449131734945958
0.002882132186965059 -0.006134904594010703 0.001060175371167295
0.003225825312674094 -0.005152616141960157 0.0007304989719899572
0.003546162680516233 -0.004305181311334202 0.0004530635792549176
0.003839625437881125 -0.003575257539387416 0.0002214286051021571
0.004104350602459539 -0.002947717560756775 2.973696558456878e-05
0.004339746878637343 -0.002409333637803046 -0.0001273061333262959
0.004546186819618591 -0.001948514613501361 -0.0002544618145744265
0.004724759539684953 -0.001555086094674386 -0.0003559884016844663
0.004877071904947714 -0.001220108235133646 -0.0004356757415100672
0.005005089385772777 -0.0009357212699296752 -0.0004968798438105919
0.00511100938734312 -0.0006950133898059401 -0.0005425581113965991
0.005197161571355326 -0.0004919100818536528 -0.0005753042128799484
0.00526593056455894 -0.0003210771889153749 -0.0005973813773153475
0.005319697476009452 -0.0001778365151275093 -0.0006107554113128347
0.005360796894029742 -5.809272895564844e-05 -0.0006171243295538493
0.005391486950723503 4.173067305981447e-05 -0.0006179483210731272
0.005413929987092866 0.0001247499307305632 -0.000614474754633179
0.005430182170357591 0.0001936695245008631 -0.0006077645215337174
0.005442190213711456 0.000250827831440515 -0.0005987119919540876
0.005451794115448071 0.000298236110466184 -0.0005880675902251853
0.005460734527544196 0.0003376137901710605 -0.0005764526459666664
0.005470664138420248 0.0003704172752788631 -0.0005643783250579446
0.005483162050437713 0.0003978684988593406 -0.0005522555434746741
0.005499750901519119 0.0004209743783402228 -0.0005404105067568717
0.005521916023488545 0.0004405471955934514 -0.0005290899408723309
0.00555112666550622 0.000457217786767271 -0.0005184735007375894
0.005588858816448957 0.0004714481099927996 -0.0005086745537286042
0.005636619887911452 0.0004835359229979051 -0.0004997496269219237
0.005695974989043866 0.0004936215328237919 -0.0004916948754789471
0.005768575226848894 0.0005016836120799808 -0.0004844525695746134
0.005856187939919451 0.0005075374456151282 -0.0004779031945517362
0.005960729426765893 0.0005108235200393051 -0.0004718687359922593
0.006084300222555768 0.0005109961326829069 -0.0004661001029170449
0.006229223599393516 0.0005073009679356758 -0.0004602766475707827
0.00639808747105251 0.0004987544663750106 -0.0004539882640140138
0.006593790450402575 0.0004841084616478743 -0.0004467301651251582
0.006819592355609942 0.0004618156442184635 -0.0004378785540278765
0.007079169940040714 0.000429980936082371 -0.0004266791381615216
0.007376678202924244 0.0003863097039553266 -0.0004122146657824173
0.007716818016015102 0.0003280396811519275 -0.0003933849246522407
0.008104910368533527 0.0002518704837730465 -0.0003688636043099288
0.008546977733011482 0.0001538725491927644 -0.00033706652658696
0.009049832562463859 2.939176369224707e-05 -0.0002960941300581174
0.00962117280983437 -0.000127065063519948 -0.0002436832936071018
0.0102696836565626 -0.0003219529589280416 -0.00017713012355373
0.01100514397774949 -0.0005628305626431207 -9.321881125128491e-05
0.01183853481441684 -0.0008585054264104925 1.188280833660581e-05
0.01278214544674479 -0.001219196417814994 0.0001427264598852703
0.01384967033363931 -0.001656692759985877 0.0003047254257712081
0.01505628649429936 -0.00218451425394789 0.0005043018240695044
0.01641869662727969 -0.002818054642553503 0.0007490792286297603
0.01795511626704226 -0.003574701153611878 0.00104808804331692
0.01968517508473933 -0.004473899981452003 0.001412022045052161
0.02162969048623634 -0.005537157181233276 0.001853512625476176
0.02381025800793285 -0.006787933289005098 0.002387453156180401
0.02624858510969356 -0.008251406181883747 0.003031333375282483
0.02896547727617535 -0.009954067011750986 0.003805599898445097
0.03197936660913803 -0.01192312178144374 0.004733980881134219
0.03530426092938209 -0.01418567535051939 0.005843756094268796
0.03894699588015322 -0.01676771348197337 0.007165876235814722
0.04290372187067594 -0.01969291537421313 0.008734847271298909
0.04715564002437665 -0.02298138502693702 0.01058817015548223
0.05166410742927671 -0.0266484470159852 0.01276521117057259
0.0563654927692533 -0.03070366364888976 0.01530548558713105
0.0611666813526632 -0.03515019378571763 0.01824621394805223
0.06594242012974778 -0.03998449390334656 0.0216186805720731
0.07053559183269653 -0.04519604575826956 0.02544375039440914
0.07476194680665153 -0.05076621581143569 0.0297278030470802
0.07842132440552955 -0.0566642269887933 0.03445969047731973
0.08131701916947558 -0.06283658206389561 0.03960913790550559
0.08328674930488346 -0.06918320386379501 0.04512794808714063
0.08425675654692916 -0.07550703493506773 0.05095556103569614
0.08435765784656918 -0.08140788390584124 0.05703343050816139
0.08423873621998787 -0.08604809693219678 0.06334657616541277
0.08610788252914241 -0.08759218764150871 0.07008480349507819
0.09794522946247219 -0.08177095376809647 0.07852694049451817
0.1559463753183923 -0.05865736596924789 0.09873284680295658
0.5167236357406513 -0.007175430858221373 0.2713354405682191
0.853808406209334 -0.1032052569699011 -0.2460694749573697
0.32313279672171 -0.1128347135643833 -0.01640078023231288
0.174769425824382 -0.1038193780633826 0.01072542449623844
0.108125301403254 -0.09085519985528326 0.0165269186040703
0.07174103454261005 -0.07841051188630932 0.01757348167603381
0.04955357295617747 -0.06745948049248343 0.01707001057240722
0.03504840384382032 -0.05803717868481117 0.01596302862044606
0.02514460342529624 -0.04997511081845391 0.01461048625885681
0.0182092581157469 -0.04308324776307611 0.01317553154756104
0.01329300156216385 -0.03718903144542493 0.01174368960224846
0.009800832277725722 -0.03214283826588875 0.01036383634655725
0.007337225552753165 -0.02781654050689338 0.009064686458378761
0.005627364265477683 -0.0241010450013345 0.00786243891545905
0.004474068891196392 -0.02090388800293118 0.006764951818099837
0.003732569438835094 -0.01814699895168456 0.005773910644752681
0.003294695679365166 -0.01576463868298768 0.004886673488084516
0.003078629217181506 -0.01370156135781466 0.004098335165274638
0.003022147261487406 -0.01191139222446371 0.003402870893133813
0.00307783369308498 -0.01035519699799136 0.002793444156962037
0.003209511229288189 -0.009000242746627108 0.002262736827759051
0.003389638682423981 -0.00781893828618003 0.001803373017757195
0.003597401439721253 -0.006787959114498847 0.001408175123045627
0.003817249383917765 -0.005887508916497257 0.001070286816669897
0.004037757874339145 -0.005100713004790885 0.0007832495643800649
0.004250740509004218 -0.004413117715107484 0.0005410589850110482
0.0044505516962674 -0.003812284211534737 0.0003381887275844809
0.004633532120668519 -0.003287452043567158 0.0001695974239796579
0.0047975649374028 -0.002829272314995138 3.071890497013223e-05
0.00494171957688008 -0.002429585531992295 -8.255336078457684e-05
0.005065965205108235 -0.002081243470707729 -0.0001738906584132348
0.005170940387679714 -0.001777962658241641 -0.0002465553648887465
0.005257768430677672 -0.00151420633945403 -0.0003034309956636923
0.005327910365293174 -0.001285084033518951 -0.000347052637473722
0.005383048717932325 -0.0010862725969289 -0.0003796374008355613
0.005424997062235331 -0.0009139475424633243 -0.0004031152265882728
0.005455630651681567 -0.0007647254526795639 -0.0004191567380676787
0.00547683474007139 -0.0006356158573488365 -0.0004292023783119462
0.005490467219174189 -0.000523979148691018 -0.0004344860094552652
0.005498333313704968 -0.0004274897771487047 -0.000436061399131203
0.005502169816882591 -0.0003441048894156266 -0.0004348207902196475
0.005503637421955618 -0.0002720375700847103 -0.0004315184191715679
0.005504319249451166 -0.0002097302199028125 -0.000426783841968004
0.005505724728260697 -0.0001558356173340506 -0.000421142568252203
0.005509297410126701 -0.0001091960169776346 -0.0004150242630543345
0.005516426344453648 -6.88286991019908e-05 -0.0004087807898175956
0.00552845995748145 -3.391027045136099e-05 -0.000402689576453379
0.005546722425621223 -3.768519657667589e-06 -0.0003969694125637319
0.005572531767577059 2.213095093231356e-05 -0.0003917793101554384
0.005607219909011779 4.41867078994153e-05 -0.0003872323496348332
0.005652154171264893 6.267001133621001e-05 -0.0003833903132725306
0.005708760636342716 7.772259009619158e-05 -0.0003802757511799872
0.005778549017544123 8.93598624460537e-05 -0.0003778625533858458
0.005863139637075971 9.746190201046164e-05 -0.0003760862193754814
0.005964292290350369 0.0001017731024097723 -0.0003748303685803172
0.006083937703506416 0.0001018855769195331 -0.0003739349632129493
0.006224211504142159 9.723174157867833e-05 -0.0003731785319887906
0.006387491491883743 8.706126124033076e-05 -0.000372283805605473
0.006576438253503348 7.042522702830989e-05 -0.0003708951394547448
0.006794039966326854 4.614303419649418e-05 -0.0003685806417773699
0.007043661548023905 1.277887885030577e-05 -0.0003648038880739777
0.007329099014144753 -3.140320415775024e-05 -0.000358921119029935
0.007654639287425391 -8.847521084744314e-05 -0.0003501457715809169
0.008025126265279478 -0.000160901198325611 -0.0003375386066576596
0.00844603337505888 -0.0002515868416379064 -0.0003199627397269194
0.008923543204650388 -0.0003639498239732457 -0.0002960634765751823
0.009464634193432828 -0.0005019805409198967 -0.0002642102214845149
0.01007717437378028 -0.0006703256330645015 -0.0002224611379901116
0.01077002137317586 -0.000874359914011486 -0.0001684862510608433
0.01155312722077721 -0.001120273772536856 -9.950945858286867e-05
0.01243764515626652 -0.001415145450077065 -1.220396097065152e-05
0.01343603374987399 -0.00176701905526662 9.739974467788628e-05
0.01456215080097663 -0.002184950521858757 0.0002340595479503517
0.0158313253398322 -0.00267904361531387 0.0004034642842567783
0.01726039031577341 -0.003260429718948114 0.0006124393728823875
0.01886764979725061 -0.003941200285971945 0.0008691612709589605
0.02067274358080683 -0.004734246840277869 0.00118344454378029
0.02269635614086073 -0.005653005806782935 0.001567047309841016
0.02495969832561639 -0.006711054288855755 0.002034049873051631
0.0274836663555944 -0.007921561759135725 0.002601242790135305
0.03028755943076585 -0.009296549535467781 0.003288552321036447
0.03338721272181998 -0.01084597642660085 0.004119409329453229
0.03679239819674046 -0.01257665510133236 0.005121043439016786
0.04050337921227222 -0.01449107862463019 0.006324537509137884
0.04450658134971003 -0.01658623771834683 0.007764482058460358
0.04876945006369462 -0.0188526371193346 0.009478007528916902
0.05323487343545277 -0.02127367873450287 0.01150319024958531
0.05781614738166704 -0.0238256182221469 0.0138765566009929
0.06239388534762099 -0.02647814032423595 0.01662918827228992
0.06681639416592683 -0.02919531266797254 0.01978171552404054
0.07090586033736629 -0.03193612324550579 0.02333954503639729
0.07447364176603705 -0.03465282120105356 0.02728900461209746
0.07734825127470869 -0.03728391044795431 0.03159514051961764
0.07942292970763618 -0.0397365813206149 0.03620296832781467
0.0807414069895651 -0.04184989959698823 0.04104455684415097
0.08167662749252125 -0.04332376639420638 0.04605822199498388
0.08337687750161402 -0.04358821941815428 0.05124406369204457
0.08908049611127124 -0.04158407920910311 0.05687036817930904
0.1087295370543753 -0.03553834970817725 0.06451629798858426
0.1800267165924601 -0.02367748896951291 0.08518292676414356
0.5412959783045843 -0.01044701737846028 0.2580679816642472
0.8197392092383752 -0.06862479684808319 -0.2440690998028439
0.320453178081011 -0.08659692796026773 -0.02224422663950293
0.1825519402412083 -0.08657368751879851 0.005311564939997222
0.1186263129399726 -0.07980577180383214 0.01238527453271976
0.08214924171255596 -0.07103606024629401 0.01456211358768339
0.05899680500348425 -0.06224383682779059 0.01491703032280443
0.04333992008125708 -0.05415700771527259 0.0144348690554079
0.03232575436230831 -0.04698308742863166 0.01353221723297887
0.02439087127264189 -0.04072500273558045 0.01242075132757833
0.01860039980869772 -0.03531011360114026 0.01122176906625456
0.01435447477356393 -0.03064249837769456 0.01000981250855648
0.0112460246143428 -0.02662433970482981 0.008831981623177334
0.008986847354694606 -0.02316459221739257 0.007717676492024016
0.007366547317838734 -0.02018215145381647 0.006684260157765433
0.006228175025632509 -0.01760652832423925 0.005740257648073035
0.00545275548511874 -0.01537736141529699 0.004887895914359589
0.004949094349642837 -0.01344345721321209 0.004125690247414841
0.004646957803589766 -0.01176165795479057 0.003450031121992559
0.004492174416353027 -0.01029570195586501 0.002855789734335681
0.0044429231312334 -0.009015152214588425 0.002336846992829971
0.004466972622553082 -0.007894440134453671 0.001886655844703841
0.004539624432479229 -0.006912045672846402 0.001498616085276498
0.004642119518981518 -0.006049796773761276 0.001166271980741976
0.004760383578776449 -0.00529228049282878 0.0008834495537971108
0.004884039990023771 -0.004626360167260504 0.0006443465860610523
0.005005628328363048 -0.004040776458432288 0.0004435889169582462
0.005119979757627905 -0.003525821688999497 0.0002762516097458371
0.005223715587683596 -0.003073079438334971 0.0001378657661528359
0.005314843851358737 -0.002675212891835756 2.440759355681267e-05
0.005392434662878085 -0.002325792192864168 -6.771810407234329e-05
0.005456359063812352 -0.00201915871887516 -0.0001417034334483063
0.005507079926348924 -0.001750313465309136 -0.0002003646804058051
0.005545485295580922 -0.001514826512263252 -0.0002461725279330757
0.005572756833042596 -0.00130876521832068 -0.0002812830682078747
0.00559026701272951 -0.001128634017465765 -0.000307567247598947
0.005599500258826287 -0.0009713242182036299 -0.0003266418499912471
0.005601993432255831 -0.0008340723372479663 -0.0003398951617651387
0.005599292531013707 -0.0007144256471607335 -0.000348516059782523
0.005592922228394778 -0.0006102093679543374 -0.0003535144160313151
0.005584366234860877 -0.0005195032458377311 -0.0003557475640579509
0.005575055970309793 -0.0004406162368293473 -0.0003559348915081389
0.005566366349474623 -0.0003720681825068425 -0.0003546816278740568
0.005559616780267546 -0.0003125697096710325 -0.0003524876220847019
0.005556076806164478 -0.0002610102181837707 -0.0003497687463788454
0.005556974954671397 -0.0002164396748036729 -0.0003468601539435497
0.005563510684378835 -0.0001780625752824812 -0.0003440357311645074
0.005576868342778717 -0.0001452235967227025 -0.0003415062398519716
0.005598233363788428 -0.0001174047268235857 -0.0003394372399138837
0.005628809871226054 -9.421474761246035e-05 -0.000337942517777472
0.005669840164563089 -7.53921164565615e-05 -0.0003371007937179085
0.005722625453269102 -6.079643057340348e-05 -0.0003369447649086404
0.0057885484862598 -5.041747290824888e-05 -0.0003374767503310499
0.005869097606649058 -4.437139826963083e-05 -0.0003386535466297215
0.005965892999241597 -4.291400043429463e-05 -0.0003404009603542533
0.006080714799593615 -4.644244844508902e-05 -0.0003425945102073976
0.006215533924126066 -5.551603197335792e-05 -0.0003450725491115479
0.0063725454273898 -7.086232967333101e-05 -0.0003476126381499661
0.006554205312508491 -9.340632184097567e-05 -0.0003499426667570541
0.006763270744652507 -0.0001242845316808697 -0.000351712438543546
0.007002844649564992 -0.0001648811413736433 -0.0003525018157658846
0.007276424797648408 -0.0002168516356669923 -0.0003517866575593097
0.007587958403301066 -0.0002821697955843954 -0.0003489424668547201
0.007941902489457258 -0.0003631596047557957 -0.000343203200276188
0.008343291041768057 -0.0004625533479334457 -0.0003336580591376705
0.008797809304945232 -0.0005835343713636371 -0.0003192006624735433
0.009311876102340588 -0.0007298023375302607 -0.0002985152601436149
0.009892734435879088 -0.0009056246162881399 -0.0002700120357063966
0.01054855074599548 -0.001115907151283959 -0.0002317967295623085
0.01128852239780618 -0.001366243924009988 -0.0001815849025700948
0.01212299224985054 -0.001662980746111968 -0.0001166451534230159
0.01306356772800961 -0.002013248242793042 -3.368038045875506e-05
0.01412323923699327 -0.002424990181766663 7.127116869486919e-05
0.01531648965035773 -0.002906946300363516 0.0002030066836173617
0.01665938055025911 -0.003468604178177098 0.0003673237096871386
0.01816959349859596 -0.004120069752662129 0.0005712703856596727
0.01986639200465597 -0.004871868334726659 0.0008234072980994491
0.02177045487612542 -0.005734619128720712 0.001134167834957059
0.02390350852506228 -0.006718576278078845 0.001516242826570833
0.02628766071725127 -0.00783299805747511 0.001985060532729981
0.02894430497421664 -0.009085332162872566 0.002559269808028254
0.03189243426488667 -0.01048018895435502 0.003261256859978579
0.03514618117249141 -0.01201814182625317 0.004117562541202387
0.03871142617316616 -0.01369438727100814 0.00515913724055368
0.04258137376001068 -0.01549737781950859 0.006421149198158211
0.04673110696263615 -0.01740761110261584 0.007942191919142461
0.05111146163472185 -0.01939680790234242 0.009762743306530286
0.05564324976825263 -0.02142773325892507 0.01192259682412325
0.06021340161903608 -0.02345486733394884 0.01445659401503472
0.06467492600248151 -0.0254258803034842 0.01738898641198828
0.06885373991594895 -0.02728346804210968 0.02072771579817682
0.07256673113921697 -0.02896624125989799 0.02445942438875323
0.07565598625441047 -0.03040637722003568 0.0285461326218275
0.07804781996046811 -0.03152058191156879 0.032925873257216
0.07985732089161858 -0.03219005593973166 0.03752025153946202
0.08159496670811993 -0.03222577286160493 0.04225636584990335
0.08464457956755446 -0.03132253555537517 0.04712977338686334
0.09256350165187704 -0.02903814255554854 0.05242835590087874
0.1153674229546186 -0.02495669531298246 0.0597992191416936
0.1888938638037098 -0.01955836275374196 0.08019417331585647
0.5407296455645885 -0.01742891504644435 0.2490998256774933
0.7820300676769847 -0.05067920299737131 -0.2405427205017115
0.3112155192116158 -0.07206317526050338 -0.02762221080150331
0.1842876779039895 -0.07665179116668072 -0.0002982215063676542
0.1249759892974899 -0.07386948911693181 0.007751230029279082
0.09000825990260036 -0.06784550016630021 0.0110301483700472
0.06691947928509974 -0.06073912728971995 0.0123334842756474
0.05071419837274135 -0.05362572804069137 0.0125934725257311
0.0389356515628184 -0.04699223190777054 0.01224650275077004
0.03020129226370383 -0.04102304386326772 0.0115413736884431
0.02365511048371773 -0.03575404959803527 0.01063520715821317
0.01872805083193947 -0.03115206975140666 0.009632039216716123
0.01502116787581608 -0.02715507102923698 0.008601786856063222
0.01224382387791444 -0.02369227970645726 0.007590980169041481
0.01017857630543931 -0.02069400310575305 0.006629633907750677
0.008659806552497358 -0.01809611654550418 0.005735517971593509
0.007559748684469582 -0.01584176312614185 0.004917489808430612
0.006778999020579463 -0.01388163834868973 0.00417875296050133
0.006239993891157918 -0.01217357762477034 0.003519007005421304
0.005882208610567936 -0.0106818234886669 0.002935461117599493
0.005658421630498879 -0.009376191757200449 0.002423617441693495
0.005531866990986276 -0.008231238240049014 0.001978040268463442
0.005474070431675009 -0.007225512367745441 0.001592878875810697
0.005463147451118629 -0.006340885437230679 0.001262183831525501
0.005482445031051449 -0.005561981693497895 0.0009801141756827891
0.005519461167892387 -0.004875695838306539 0.0007410894660751524
0.005564982021903655 -0.00427079930025636 0.0005398785924531547
0.005612388325305066 -0.003737608228998105 0.00037165409807223
0.005657096124501276 -0.003267725918139239 0.000232012030434988
0.005696105894469003 -0.002853825530371981 0.0001169779040320865
0.005727639073521714 -0.002489480241462456 2.299433630916905e-05
0.00575084585478822 -0.002169024132218816 -5.309681202104676e-05
0.005765571072916961 -0.001887443956455938 -0.0001140806329047319
0.005772167997566203 -0.001640286362179404 -0.0001623974730481393
0.005771351119754624 -0.001423589755056067 -0.0002001726921168492
0.005764081404613046 -0.001233824163263291 -0.0002292482620480987
0.005751477759021986 -0.001067842461463055 -0.0002512104987864644
0.005734750327075452 -0.0009228407553985471 -0.0002674212901686835
0.005715151135970987 -0.0007963236049573741 -0.000279040943398863
0.005693939246045335 -0.0006860748097114544 -0.000287057416047024
0.005672357097560393 -0.0005901316021354004 -0.0002923030306345905
0.005651616352219437 -0.0005067646339918187 -0.0002954812582811444
0.005632890733246505 -0.0004344549490202427 -0.0002971769811468466
0.005617314978750454 -0.0003718810231661082 -0.0002978810010390743
0.005605988032817222 -0.0003178997014111203 -0.000297994047095428
0.005599980193067677 -0.000271537066846463 -0.0002978494736368248
0.005600342775570031 -0.0002319730132914471 -0.0002977114452268599
0.005608120462890501 -0.0001985380205579833 -0.0002977963464997565
0.005624365206241409 -0.0001706985680671025 -0.0002982656389287517
0.005650152151064457 -0.0001480597931234607 -0.0002992464327793822
0.005686596694086207 -0.0001303544459939318 -0.000300819470163019
0.00573487335504454 -0.0001174495005129638 -0.0003030391673033342
0.005796235745913353 -0.0001093392000957842 -0.0003059170858770467
0.005872038468957446 -0.0001061582283092274 -0.0003094415610060821
0.005963760372339413 -0.0001081770367338582 -0.0003135568962112627
0.006073030093297046 -0.000115822163895775 -0.0003181824786110941
0.006201653462127195 -0.0001296772810649927 -0.0003231877731038433
0.00635164377614608 -0.0001505092059640343 -0.0003284105833800762
0.006525254665190961 -0.000179275717947823 -0.0003336277235370615
0.006725016635752036 -0.0002171603897228868 -0.0003385717797851226
0.006953777192474139 -0.0002655859197155396 -0.0003428970612471344
0.007214745712820502 -0.0003262587792185956 -0.0003461938141844668
0.007511543214332258 -0.0004011920170919929 -0.0003479486161015597