# OOMMF: rectangular mesh v1.0
# Segment count: 1
# Begin: Segment
# Begin: Header
# Title: 
# Desc: time = 8.547293739256668e-11
# Desc: stepsize = 4.736735084385704e-13
# Desc: step = 160
# meshunit: m
# valueunit: (none)
# valuemultiplier: 218496.8658617927
# xmin: 0
# ymin: 0
# zmin: 0
# xmax: 4e-07
# ymax: 1e-07
# zmax: 4e-09
# ValueRangeMaxMag: 1
# ValueRangeMinMag: 0.003873453904027897
# meshtype: rectangular
# xbase: 2e-09
# ybase: 2e-09
# zbase: 1e-09
# xstepsize: 4e-09
# ystepsize: 4e-09
# zstepsize: 2e-09
# xnodes: 100
# ynodes: 25
# znodes: 2
# End: Header
# Begin: Data Text
0.832005047432317 -0.5364926843752457 -0.1405017872006238
0.249478247042156 -0.3660544377304166 0.06839945419181848
0.1171790554419571 -0.2940508108550782 0.08295649067888841
0.06296129863358466 -0.248399562709564 0.07955434557968098
0.03493199556317911 -0.2130278558865017 0.07267679805066819
0.01876122218416623 -0.1834675206580943 0.06508258208604439
0.008922613044618012 -0.1580861209536228 0.05760916009127874
0.002818586251748017 -0.1360865445329997 0.0505690964929324
-0.0009401818729522065 -0.1169600897432211 0.04408298816382529
-0.003166107647124788 -0.100319126960245 0.03818736542119889
-0.004365435715409018 -0.08584171346770512 0.03287784366868497
-0.004868546842731585 -0.07325134347554713 0.02812927239643027
-0.004898535139214654 -0.0623080017162358 0.02390619478851135
-0.004609911471623879 -0.05280285369540715 0.02016862429755183
-0.004111702438402958 -0.04455418765983853 0.01687536976708445
-0.003481859099973437 -0.03740389131083059 0.01398589780081605
-0.002776570649754413 -0.03121431093283561 0.01146141391082214
-0.002036473953250042 -0.02586545801181633 0.009265397367578235
-0.001290887681747393 -0.02125256064432345 0.007363840184383332
-0.0005607742934509243 -0.01728394604822996 0.005725326793026793
0.0001391476959465009 -0.01387922702310757 0.004320960235900598
0.0007988758901071331 -0.01096775925774203 0.003124256050884188
0.001411984242692254 -0.008487330267861899 0.002111031924247151
0.001974771164751251 -0.006383059700855872 0.001259206313423669
0.002485612622448535 -0.004606447498352711 0.0005486980144055642
0.00294445418707537 -0.003114595708779949 -3.868860060720991e-05
0.003352422006833044 -0.001869528363884793 -0.0005194452329973726
0.003711528461731565 -0.0008376218623437358 -0.0009083506990830256
0.004024422595630591 1.086066608669645e-05 -0.001218578438088215
0.004294212928527119 0.0007021803477152527 -0.001461812709420714
0.004524331789901742 0.001259463218643572 -0.001648230467509715
0.004718396081467034 0.001702991463821133 -0.001786633561689193
0.004880118523889425 0.002050468530941059 -0.00188466207760031
0.005013222089535868 0.002317294879186933 -0.001948893783599868
0.005121336816750868 0.002516808926537671 -0.001985016608381533
0.005207922856517221 0.002660537547897501 -0.001998153084547264
0.005276234902697055 0.002758486029723947 -0.001992914509068131
0.005329296669174498 0.002819348572263856 -0.001973394782920642
0.005369871920583201 0.002850669365641644 -0.001943306678485462
0.005400507784248979 0.002858969899877264 -0.001905815320190568
0.005423617284152632 0.002849856335396049 -0.001863336714037254
0.005441536190086526 0.002828080204570842 -0.001817710725314935
0.005456519253306286 0.002797505295461126 -0.001770439600078367
0.005470667498880272 0.002761174043177937 -0.001722645325982351
0.005485934052966162 0.00272153324815737 -0.00167506680120378
0.00550418175766207 0.002680621993869967 -0.001628499697909024
0.005527157034495312 0.002640116532497698 -0.001583994537720773
0.005556498431744648 0.002601280340957765 -0.00154239577405164
0.005593826633457527 0.00256494996882149 -0.001503988988643143
0.005640834092791847 0.002531548465783691 -0.00146853410878054
0.005699365491113753 0.002501088778841743 -0.001435538620406809
0.005771416111109129 0.002473235622806482 -0.001404696783953506
0.005859052332400029 0.00244733234265929 -0.001375934309232617
0.00596440587323027 0.002422329972663823 -0.001349012963995842
0.006089759271219004 0.00239672339732091 -0.001323259387331015
0.006237673585888625 0.002368473171873416 -0.001297431351543428
0.006411112816006028 0.002334934390335395 -0.001269828939698542
0.006613438817750085 0.002292888113699361 -0.001238736616327333
0.006848380659131556 0.002238534080797804 -0.001202502446462363
0.007120188396846737 0.002167255725530308 -0.001159123264109868
0.007433770969976438 0.002073274188720255 -0.001105966541280581
0.007794654133771515 0.001949470927013516 -0.001039742940236445
0.008208995302058902 0.001787316113140187 -0.0009564527298034321
0.008683759277886548 0.001576661272939039 -0.0008511539962905622
0.009226912475697818 0.001305461446043888 -0.000717787407686024
0.009847554908242717 0.0009594813832649482 -0.0005492514140184706
0.0105560458219806 0.0005219056995465784 -0.0003373853019545194
0.01136415350936987 -2.713185643406041e-05 -7.269128826021921e-05
0.01228516661022123 -0.0007110982151131344 0.0002560120677623689
0.01333399339694352 -0.001557661245365253 0.0006619023708908191
0.01452726424919258 -0.002599325797057112 0.001160585867903853
0.01588339386991825 -0.003874085623935041 0.001770657151752897
0.01742261988731985 -0.0054260924164816 0.002514117078853762
0.01916698443496183 -0.007306357745485061 0.003416837191799519
0.0211401994266524 -0.009573418097038391 0.004509122483023795
0.0233673511165932 -0.01229396029595546 0.005826167314897168
0.02587438631199326 -0.0155433552125592 0.007408558558756085
0.02868728113973159 -0.01940599262701548 0.009302802404887818
0.03183079586137769 -0.02397535140123677 0.01156173758480285
0.03532672254222691 -0.0293536624956813 0.01424483617357187
0.03919148960584557 -0.03565104486310745 0.01741830891771703
0.04343305115969954 -0.04298398020687444 0.02115478592379646
0.04804700913340202 -0.05147303085796615 0.02553250614934987
0.05301202254044486 -0.06123971155034656 0.03063379659309177
0.05828472666867274 -0.07240255359241099 0.03654261389245578
0.06379459899342196 -0.08507243307666167 0.04334111215123378
0.06943948526935576 -0.09934734252107065 0.05110510467974852
0.07508273731837083 -0.1153068124388885 0.05989864951769559
0.08055302860825544 -0.133006033288098 0.06976813319711353
0.08564772450121844 -0.1524693822992705 0.0807365285237136
0.0901401290786864 -0.1736821158571027 0.09279873737283587
0.09379001295417667 -0.1965772337155245 0.1059188879320838
0.09635617550657313 -0.2210108009269824 0.120030182692591
0.0976109475839813 -0.246710730559496 0.1350373920140442
0.09736466101024224 -0.2731626660943173 0.1508222887184299
0.0955421107580364 -0.2993330892534992 0.1672576318447259
0.09250571253559101 -0.3229030481324561 0.1842705072714758
0.09069326575327542 -0.3376614516282432 0.2022669133357286
0.1060883883527316 -0.3212006275689444 0.2266019069394676
0.3335915995107018 -0.1326369434508869 0.3584220898830319
0.8789703510933596 -0.1881082833429662 -0.2404844117646529
0.3097748368153438 -0.1713067199091178 -0.006063866687137162
0.1562549012106089 -0.1424524262005886 0.01904105409966875
0.09150734207852464 -0.1191970520977245 0.02303800367603358
0.05769076770101069 -0.1009254610922933 0.02277057697619829
0.03771903304929085 -0.08608037756161716 0.02128117419893211
0.02503400732970288 -0.0737089768292595 0.01940258104350981
0.01663473851805491 -0.06325008747824552 0.01742901988767783
0.01095688143099564 -0.05433998624986153 0.01548622019730601
0.007099407787500319 -0.04671674485184547 0.01363533479200894
0.004502327870073891 -0.04017693320491491 0.0119075577435286
0.002797173884732253 -0.03455552576811088 0.01031782435155098
0.001731047552586061 -0.02971569024164784 0.008871309181226692
0.001124929580894907 -0.02554281248095192 0.007567036116552611
0.0008492224610563876 -0.02194044229623189 0.006400160463411081
0.0008085935337283066 -0.01882721147422172 0.005363438202736492
0.0009321464531718876 -0.016134349967616 0.004448269115962683
0.001166802071068685 -0.01380361714118551 0.003645374220244312
0.001472715262791571 -0.01178557163103557 0.002945252858375433
0.001820011192655546 -0.01003812325233002 0.002338507917821208
0.002186412949782897 -0.008525320795888931 0.001816013319756999
0.002555494185149306 -0.007216349502586251 0.001369026508408432
0.002915350329218958 -0.006084695233058901 0.0009892871180682552
0.003257592461759711 -0.005107454495657321 0.0006689890082473433
0.003576568824958842 -0.004264764364775657 0.0004008440406769059
0.003868745044732655 -0.003539334715921206 0.000178116892134037
0.004132227001467209 -0.002916060415071752 -5.431268961257052e-06
0.004366385170717946 -0.002381708895011783 -0.0001554085536081741
0.004571541012253337 -0.001924662744030781 -0.0002767907591275489
0.004748737426044839 -0.001534709754596229 -0.0003739486681056819
0.004899560257427221 -0.001202873575422954 -0.0004505500854931238
0.005025967259773293 -0.0009212722430358391 -0.0005096194845249618
0.005130184797372013 -0.0006829964737552543 -0.000553711955556323
0.005214613455044979 -0.0004820027678991017 -0.0005849668084998741
0.005281713928624852 -0.0003130125746560678 -0.0006052262413998998
0.005333938005386978 -0.0001714156267039785 -0.0006163262878046045
0.005373682034242807 -5.317665337504985e-05 -0.0006200850088315749
0.005403226791005728 4.524375172154213e-05 -0.0006182172020548916
0.005424680804334155 0.0001269528476767694 -0.0006124050751489722
0.00544000570324436 0.00019467155101771 -0.0006040611392559761
0.005451082383690357 0.0002507705686860604 -0.0005940640881024898
0.005459724935335179 0.0002972927064993205 -0.0005829167830772877
0.005467672395071879 0.0003359571988738365 -0.0005710270770786522
0.005476591753926248 0.0003681825265708374 -0.0005586638110102422
0.005488122500984384 0.0003951450118248536 -0.0005458978840440661
0.005503881066016673 0.0004178314527025907 -0.0005330352954726414
0.005525365888621759 0.0004370576899867308 -0.0005208083956533463
0.005553953291743347 0.0004534661365378189 -0.0005098517780267469
0.005591006866557507 0.0004675253130048084 -0.0005002940582115671
0.005637966848539643 0.0004795352796204052 -0.0004917882129538278
0.005696439620855863 0.0004896328544846242 -0.0004838436653302509
0.005768202443494454 0.000497797249823969 -0.0004763349760257169
0.005855089684773092 0.0005038476535297847 -0.0004695420509952116
0.005958966654278079 0.0005074289261346417 -0.0004637019155242628
0.006081814222960353 0.0005079929652623965 -0.000458700913920895
0.006225849891109372 0.0005047797722491168 -0.0004539435408402275
0.006393676714659076 0.0004968001845802933 -0.0004485300680292595
0.006588293354379831 0.0004828215141372337 -0.0004417874741319005
0.006812993617009368 0.0004613365668226916 -0.0004333673921273353
0.007071430219761784 0.0004304984582011485 -0.0004228351421228481
0.007367765671194599 0.0003880322768498224 -0.0004094624720068372
0.007706704165864132 0.0003311653846703488 -0.0003922702994269712
0.008093500174746181 0.0002565756030289061 -0.0003700055849008248
0.008534077825627881 0.0001603242053918698 -0.0003409580491682949
0.009035198777918068 3.776819716691187e-05 -0.0003028783044791753
0.009604561841190257 -0.0001165434607769388 -0.0002531914980882649
0.01025088185199585 -0.0003090022592560984 -0.0001891369608318342
0.01098399751332582 -0.000547091208146119 -0.0001076529985917581
0.01181495288626409 -0.0008395513034857202 -5.207371404153994e-06
0.01275608327146351 -0.001196553944878175 0.0001223267905553599
0.01382111178443097 -0.001629871438892016 0.0002799007332427358
0.01502521653751152 -0.002153033185952617 0.0004736298512945321
0.01638507716789372 -0.002781463656098711 0.0007109746542518324
0.01791887999698998 -0.003532588543172627 0.001000951632787228
0.01964623268609214 -0.004425895160943532 0.001354422766457254
0.02158794375424981 -0.005482924445582914 0.001784269576453255
0.02376563215651967 -0.006727167725648059 0.002305653123219441
0.02620106993346817 -0.00818382975874132 0.002936340028677845
0.02891517089860999 -0.009879435970073512 0.003696989981682913
0.03192653489333284 -0.01184124055085145 0.004611472652108963
0.03524939874640269 -0.01409642229531334 0.005707171341976628
0.03889090050985918 -0.01667107022920146 0.007015095607304178
0.04284756659159063 -0.01958900064740197 0.008569795029349854
0.04710102488651922 -0.02287048285799224 0.01040888704180466
0.05161310831866557 -0.02653102218963414 0.01257198175431643
0.05632075524468186 -0.03058035025588268 0.01509893938759175
0.06113144449994926 -0.03502176548385043 0.01802722788031622
0.06592027879463588 -0.03985182699353199 0.0213884680070081
0.07053016123924127 -0.04506006417381012 0.02520434476619265
0.07477667257699937 -0.05062779393242234 0.02948237790117852
0.07845927601955838 -0.05652407444096703 0.03421238050936034
0.0813806388316201 -0.06269514861654391 0.03936461666481151
0.08337770016756921 -0.06904062253929848 0.04489086224287243
0.08437586923897895 -0.07536309557273581 0.05073001564685516
0.08450532087696555 -0.08126197593733753 0.05682261346360937
0.08441605546974876 -0.08589898509014504 0.0631525664238803
0.08631969457731115 -0.08743735029161673 0.06990887517871058
0.09820896222621234 -0.08160496635601171 0.07837157114540144
0.156326849541978 -0.05846915977318167 0.09861547375795562
0.5175649628574454 -0.006951708558190804 0.2714552316387983
0.8551276205636433 -0.1030966558530256 -0.2466270592296849
0.3235601466137828 -0.1125898640479484 -0.01662493272597606
0.174942198382863 -0.1035183353149984 0.0105426760973025
0.1082002555109909 -0.09054493678826701 0.01635045400033734
0.07177689727330842 -0.07811536245772913 0.01739615824259526
0.04957529435666474 -0.06718996877423698 0.01689088494198303
0.03506688956854805 -0.05779640876716388 0.01578299603932078
0.02516437265363782 -0.04976248481960615 0.01443113647273483
0.01823184167026954 -0.04289649636757301 0.01299876916566694
0.01331858755004233 -0.03702529447123577 0.01157158079836805
0.009829081654936563 -0.03199921756007565 0.01019823794975848
0.007367677999815855 -0.02769035030725336 0.008906841877596029
0.005659570487794012 -0.02398989697410724 0.007712775495666803
0.004507562309430142 -0.02080569047633957 0.006623082436462983
0.003766798393184008 -0.01805993388143406 0.00563926141150162
0.00332911230038757 -0.01568714856626766 0.004759114536357219
0.003112833611828198 -0.01363233465381759 0.003978080502047203
0.003055866594249669 -0.01184933075588114 0.003290141647723123
0.003110842242724443 -0.01029938256628776 0.002688457451607647
0.003241621269090829 -0.008949911736118591 0.002165827295898465
0.003420717275409808 -0.007773463587304616 0.001714964072165385
0.00362737305672223 -0.006746831976897734 0.001328684477724384
0.003846081531737105 -0.0058503229029684 0.001000067782526257
0.00406545230223486 -0.00506714572178809 0.0007224719751607144
0.004277326312474706 -0.004382913203208992 0.0004896288080228098
0.004476066530630851 -0.003785232248732981 0.0002957045225031431
0.004658005911350742 -0.003263368445837857 0.0001352649884655277
0.004821009316069849 -0.002807979866584333 3.422512142865474e-06
0.004964108962178183 -0.002410899752669757 -0.0001041461816502636
0.005087232769847461 -0.002064963497998448 -0.0001912182601320099
0.00519099314370092 -0.001763870997326479 -0.0002609238439125321
0.005276491832508026 -0.001502075530675866 -0.0003157991382901827
0.005345199242403005 -0.001274689540930653 -0.0003579596356674124
0.005398849053641355 -0.001077408034736755 -0.0003891552087505593
0.005439317244326737 -0.0009064380957740554 -0.0004108880305450788
0.005468548169541189 -0.0007584334685929644 -0.0004247002109305579
0.005488500203462293 -0.0006304368828560964 -0.0004321609685123732
0.005501072971910467 -0.0005198301225044327 -0.0004347759429101136
0.005508037399313144 -0.0004242930937872054 -0.0004340430154097468
0.005511051042854873 -0.0003417762187118428 -0.000431210789005062
0.005511714833995636 -0.0002704769475718956 -0.0004270156619628439
0.0055115742423742 -0.0002088248996371618 -0.0004218342851810235
0.005512110665660992 -0.000155473891484141 -0.0004159614967811758
0.005514765363700745 -0.0001092863062292715 -0.0004095740932877392
0.005520995974720301 -6.930141381750111e-05 -0.0004026875696063293
0.005532263542167823 -3.470630638918526e-05 -0.0003955821820375083
0.005549915409411735 -4.825044442459513e-06 -0.0003889687889213848
0.005575176848120355 2.088061723910932e-05 -0.0003834599491922216
0.005609263868310745 4.281276669919453e-05 -0.0003791695082081278
0.005653473416511738 6.123995755276213e-05 -0.0003757482733185315
0.005709273583078973 7.630271584474237e-05 -0.0003727301108663379
0.00577830382791318 8.801720613631976e-05 -0.0003700389461443822
0.005862252029580954 9.627014890497254e-05 -0.0003680119579707163
0.005962823895391346 0.000100807756764804 -0.0003669492199099652
0.006081825917693707 0.0001012229441651743 -0.0003668125919850355
0.006221287160360184 9.694135365865628e-05 -0.0003671010909880908
0.006383610842822053 8.721289611429563e-05 -0.0003670427125502746
0.006571575693262328 7.110035094662448e-05 -0.0003661250715911236
0.006788213607739246 4.745030187147316e-05 -0.0003641903117665072
0.007036855678410343 1.484752679244659e-05 -0.000361034549823403
0.007321284763863884 -2.84329880014328e-05 -0.0003562017059054557
0.007645778345234622 -8.446641994467214e-05 -0.0003490211980155634
0.008015114319401811 -0.0001557194648556381 -0.000338605025196113
0.00843467868145913 -0.0002451017826702921 -0.0003236932028941242
0.008910622488034316 -0.0003560208817374237 -0.0003025812255936891
0.009449945019807822 -0.0004924445812220914 -0.0002733294656332901
0.01006055556686363 -0.0006589803724369687 -0.0002339258937649936
0.0107513710282826 -0.0008609637863141446 -0.0001822046719996093
0.01153239513554652 -0.001104548268079278 -0.000115688901082497
0.01241480848681629 -0.001396790305989564 -3.148077544402617e-05
0.01341107617497058 -0.001745724631080935 7.393304817228361e-05
0.0145350382366068 -0.00216041826361625 0.0002049889046507211
0.01580198910826283 -0.002650995939739607 0.0003672097795196478
0.01722872748043537 -0.003228620678072663 0.0005673997809330266
0.01883353497803525 -0.003905415370161118 0.0008139065733654254
0.02063604372627184 -0.004694307769996215 0.001116786239648896
0.02265696174605347 -0.005608770011219439 0.001488071712917929
0.02491755931311957 -0.006662422600277519 0.001942119544771391
0.02743882926665635 -0.007868486147935512 0.002495941176394235
0.03024021998332584 -0.009239051135681598 0.003169601355999293
0.03333777236914447 -0.01078416403500507 0.00398663871598332
0.03674153627821371 -0.01251074917013945 0.004974331016363675
0.04045213029160992 -0.01442142877511395 0.006163796381347768
0.04445639635723411 -0.01651333591494999 0.00758972089104853
0.0487222661447394 -0.01877711231724304 0.0092894631029412
0.05319323463143632 -0.02119626967896426 0.01130141783075423
0.05778324855525115 -0.02374711513904509 0.01366233715645629
0.06237334517494165 -0.02639931002606967 0.01640362972629411
0.06681194122576545 -0.02911680639239623 0.01954677269723753
0.07092116462039896 -0.03185836696659563 0.02309835550769753
0.07451209639332462 -0.03457590024988412 0.02704571950897624
0.07741268029757857 -0.03720748438429167 0.03135449013024929
0.07951538746713499 -0.03965984576256296 0.03596967721244432
0.08086309667119516 -0.04177159944836475 0.0408227934845657
0.08182834658737191 -0.04324221592270326 0.04585118402889217
0.08356037031693574 -0.04350124248691164 0.05105375948904874
0.08930188179151939 -0.04148874894987113 0.056697975858385
0.1090087231851233 -0.03543048197343932 0.06436450720623303
0.1804315552919935 -0.02355125009422007 0.08507099348348487
0.5421737158323539 -0.01029336665107142 0.2582058838447483
0.8212228005321077 -0.06855962275211483 -0.244631572015037
0.3209627509775987 -0.08643363764401349 -0.02244151800389817
0.1827602415918114 -0.08635714929473269 0.005159291091003612
0.1187061388292618 -0.07956686224960728 0.01223637116506903
0.08217263080339578 -0.07079626578139619 0.01440704193619082
0.05899773516870914 -0.06201595144741257 0.01475448468907254
0.0433347060534283 -0.053947422808215 0.01426630285190645
0.03232189629240626 -0.04679410683892485 0.01336008819213819
0.0243913885758633 -0.04055656807633796 0.01224785818990562
0.01860609970901444 -0.03516093888426752 0.01105099159972517
0.01436515615417056 -0.03051076240930471 0.009843722366696464
0.01126112776851866 -0.02650807914219746 0.00867242228679722
0.009005727808454433 -0.02306190225034013 0.007565558382657496
0.007388519048277191 -0.02009127344538861 0.006539551540351058
0.006252465337094464 -0.01752588209657179 0.00560261025665587
0.005478594526407972 -0.01530556317647627 0.004757321494208364
0.00497587239990046 -0.01337932066928471 0.004002516991419807
0.004674219355071438 -0.01170417785046033 0.003334572399313767
0.004519537305004174 -0.01024402970610715 0.002748323702942053
0.004470062711428075 -0.008968577340110617 0.00223773799752842
0.004493635948426267 -0.007852372286706771 0.001796339297126309
0.004565632149529146 -0.006873999833646346 0.001417506174472263
0.004667351367196117 -0.006015377259745139 0.001094708641077398
0.004784769683211603 -0.005261167395787579 0.0008215810988550604
0.004907554860311402 -0.004598293599616345 0.0005920523205984708
0.005028272947323041 -0.004015541960354412 0.000400435459427012
0.005141764505603313 -0.003503233040954263 0.00024141284628864
0.005244647283059236 -0.003052965129481726 0.0001101917535603892
0.005334902927627382 -0.002657402945208871 2.534867848739066e-06
0.005411564946175925 -0.002310111189988996 -8.525365127970052e-05
0.005474476407028563 -0.002005423366034227 -0.0001562289261257167
0.005524071401969359 -0.001738336364251492 -0.0002128547056304888
0.005561236364106449 -0.001504423279268872 -0.0002571761244730952
0.005587192371747267 -0.001299764655342705 -0.0002908783705405865
0.005603366626649139 -0.001120887109956855 -0.0003154032877872323
0.005611311787373559 -0.0009647078228788261 -0.0003322341575691971
0.005612644141297853 -0.000828487455625916 -0.0003428894149970832
0.005608962519865311 -0.0007097894664877916 -0.0003488311076084974
0.005601768816999361 -0.0006064453553692169 -0.0003515120158003852
0.005592476357745608 -0.0005165313860894067 -0.000352140018111016
0.005582460521349147 -0.0004383481066451216 -0.0003514248283283661
0.005573051742953182 -0.0003704059942334066 -0.0003497235508171608
0.005565526729055722 -0.0003114184924607435 -0.0003473018444516524
0.005561143944089307 -0.0002602881402039053 -0.000344305470967134
0.005561206147499565 -0.0002160816400615013 -0.0003407427747503769
0.005567036029573717 -0.0001780084699443573 -0.0003369031653549855
0.005579845749983051 -0.0001454132598081483 -0.0003334939312092213
0.005600727540115312 -0.0001177742466362992 -0.0003311140907007847
0.005630767970224318 -9.470024453718428e-05 -0.0003298721803456875
0.005671137340153251 -7.592845200976479e-05 -0.0003294314996968804
0.005723180588563357 -6.132222407345412e-05 -0.0003293576477787925
0.005788413069546862 -5.086804052402308e-05 -0.0003296122033082294
0.005868390556839112 -4.468044906336614e-05 -0.0003305571252302833
0.005964676745933407 -4.301059924757427e-05 -0.0003325110526427347
0.006078924595215314 -4.625697741693497e-05 -0.0003354652458198735
0.00621299839586472 -5.497850235360189e-05 -0.0003389697682884447
0.006369127063705105 -6.990530385106565e-05 -0.0003423245616526764
0.006549896137921367 -9.194910510608063e-05 -0.000345100233538385
0.00675810936005821 -0.0001222295137861928 -0.0003472354295619707
0.006996827804540695 -0.0001621123269070104 -0.0003486483118507049
0.007269526335278825 -0.0002132499662106328 -0.0003490125998317992
0.00758013862678773 -0.0002776135231475309 -0.0003477859223531321
0.00793305635268844 -0.0003575283892222869 -0.000344236292694126
0.008333231033344279 -0.0004557205471735892 -0.0003373186821755629
0.008786327170075318 -0.0005753670044840699 -0.0003256002663121804
0.009298795924314695 -0.0007201464663959949 -0.0003074569013014558
0.009877927554345961 -0.0008943026627933278 -0.0002812445961226288
0.01053194605309929 -0.001102710527448973 -0.0002452347196703665
0.01127009260460187 -0.001350943341961872 -0.0001974545491711757
0.01210272584068242 -0.001645330439985344 -0.0001355864620884314
0.01304144610159794 -0.001993000842030703 -5.67910751719947e-05
0.01409921363164188 -0.002401903059771385 4.258460034621031e-05
0.01529046757874048 -0.002880796250705324 0.0001671634278686701
0.01663122979034546 -0.003439190160868994 0.0003227273884822455
0.01813915591262886 -0.004087221613364628 0.000516479754402716
0.01983349817457569 -0.004835446859218625 0.0007572232045674257
0.02173495296316288 -0.005694526305833972 0.001055651289636897
0.02386529627940256 -0.006674760842222358 0.001424731243508113
0.02624671800471471 -0.007785473069283034 0.001880098275778051
0.02890074236026085 -0.009034189534918385 0.002440543675128891
0.03184654683084289 -0.01042562386650683 0.003128552167389317
0.03509852254135095 -0.01196047144697183 0.003970712488013495
0.03866289128287213 -0.01363407182685135 0.004997995160505267
0.04253327203311775 -0.01543502872711314 0.006245658299479491
0.04668525225321286 -0.01734398905354712 0.0077525062800233
0.05107032421614244 -0.01933279024938666 0.009559323520613368
0.05561002802235162 -0.02136425255358123 0.01170610840849015
0.06019181209181157 -0.02339282123458871 0.01422804394080331
0.06466890659791651 -0.02536602526212868 0.0171502732854545
0.06886729870693385 -0.02722628544937951 0.02048199167171261
0.07260371199713106 -0.02891179756324487 0.02421092405389655
0.0757197316691726 -0.03035420760278499 0.02829974128847966
0.07814090517590305 -0.03146962965679168 0.03268652157564124
0.07998141496519823 -0.03213868105062048 0.03729234639362509
0.0817512766429474 -0.03217181282278947 0.04204333611934719
0.08483528376101172 -0.03126336108884737 0.04693383272115401
0.09279533801192372 -0.02897064758070457 0.05225089451841274
0.1156612265606686 -0.02487718588848623 0.05964334567295126
0.1893190304458615 -0.01946214805013803 0.08008054124416149
0.5416454636104474 -0.01730600084309526 0.2492484902022199
0.7836220796872724 -0.05063781723970354 -0.2411145700308516
0.3117896634569209 -0.07195396641466037 -0.02780716273505033
0.1845356819349005 -0.07649521479218126 -0.0004333579171678231
0.1250734250685732 -0.07368355721959051 0.007620037625777383
0.09003267838103869 -0.06764716076165166 0.01089067505959161
0.06691090016632703 -0.06054139381747398 0.01218309575411673
0.05069379161177153 -0.05343705470023824 0.01243330797085804
0.03891425200564724 -0.04681727067101527 0.01207928800859075
0.03018397728119737 -0.04086375537700317 0.01137044074033933
0.02364383569728955 -0.03561068776111353 0.0104640605144143
0.01872316764475384 -0.03102391559722311 0.009463883750642849
0.01502231454530908 -0.02704092011884931 0.008439046483379287
0.01225036127679938 -0.02359074112195707 0.007435053797586871
0.01018972933176578 -0.02060366462169548 0.00648085426577526
0.008674668608609231 -0.01801563237688049 0.005593755961593533
0.007577388952680769 -0.01576990355575288 0.004782890463088597
0.006798639440372987 -0.01381731811022041 0.004051751753215366
0.006261023677979273 -0.01211585618769323 0.003400007485207532
0.005904108003830224 -0.01062989505821489 0.00282479459282644
0.005680743791830748 -0.009329371132610051 0.002321671160240415
0.005554251381290155 -0.008188948793642195 0.00188525077722144
0.005496244636672085 -0.007187271247711239 0.001509648116802182
0.005484912174879644 -0.006306291512641359 0.001188825413666867
0.005503664833275271 -0.005530701812730113 0.0009167454602370689
0.005540058635559776 -0.004847453935321227 0.0006875525302690123
0.005584920478364896 -0.004245362706797774 0.0004957041728638179
0.005631654043192342 -0.003714775985798345 0.00033598317241113
0.005675683723232403 -0.00324731617321455 0.0002036659695197865
0.005713993063023805 -0.002835666532786261 9.456937467934425e-05
0.005744771837478975 -0.002473401919970591 5.041658823436696e-06
0.005767142709821165 -0.002154856302282712 -6.79376091867428e-05
0.005780918644404277 -0.001875015447311814 -0.0001268010735271387
0.005786444636173811 -0.001629429034237316 -0.0001735630979425876
0.005784466938285968 -0.001414144432366833 -0.0002098814965059268
0.005775995572918818 -0.00122564679677652 -0.0002371684391659176
0.005762216336067194 -0.001060808126550276 -0.0002568708966310331
0.005744421800074174 -0.0009168432737543832 -0.0002704743859729391
0.005723923691319442 -0.0007912731004114672 -0.0002794099987197143
0.005701966438924835 -0.0006818899496507734 -0.0002850947621944675
0.005679729317884416 -0.0005867331172275254 -0.0002887070309514948
0.005658372120366145 -0.0005040679164105656 -0.0002909478646332517
0.005639020389877707 -0.0004323699620058594 -0.0002921766231858411
0.005622755436073365 -0.0003703170212227324 -0.0002926446641049057
0.005610659351695929 -0.0003167760426425434 -0.0002924723361206407
0.005603880241156141 -0.0002707814550916268 -0.0002916635807516275
0.005603598516682113 -0.000231521281226699 -0.0002905168668832048
0.005610889016020305 -0.0001983277628114176 -0.0002897340082037671
0.005626711596926264 -0.0001706704514889539 -0.0002898980641981383
0.005652024870286388 -0.0001481511391182662 -0.0002911145584024859
0.005687872314530195 -0.0001305016677101762 -0.00029306504020853
0.005735471930741236 -0.0001175842693455054 -0.0002953492446059707
0.005796210048089966 -0.0001093953864080999 -0.0002979605406589863
0.005871507916836236 -0.000106067981842182 -0.0003012755109133441
0.00596278773422985 -0.000107875726165547 -0.0003056188725600657
0.006071551247747249 -0.0001152409478620178 -0.0003110028862515952
0.006199498920951628 -0.0001287468566149182 -0.0003170212443715036
0.006348682277186578 -0.0001491522131504307 -0.0003230332838184829
0.006521490999166963 -0.0001774100753637 -0.000328674737444977
0.006720504450448706 -0.0002146883935884609 -0.0003339675331163825
0.006948522927435921 -0.0002624005352317 -0.0003389362256977165
0.007208725413272653 -0.0003222442868998367 -0.0003433555549554464
0.007504717776388468 -0.0003962355867997468 -0.0003467729963803679