# OOMMF: rectangular mesh v1.0
# Segment count: 1
# Begin: Segment
# Begin: Header
# Title: 
# Desc: time = 4.3299693482605906e-11
# Desc: stepsize = 5.468366355249509e-13
# Desc: step = 80
# meshunit: m
# valueunit: (none)
# valuemultiplier: 218571.9750101134
# xmin: 0
# ymin: 0
# zmin: 0
# xmax: 4e-07
# ymax: 1e-07
# zmax: 4e-09
# ValueRangeMaxMag: 1
# ValueRangeMinMag: 0.003873482711492005
# meshtype: rectangular
# xbase: 2e-09
# ybase: 2e-09
# zbase: 1e-09
# xstepsize: 4e-09
# ystepsize: 4e-09
# zstepsize: 2e-09
# xnodes: 100
# ynodes: 25
# znodes: 2
# End: Header
# Begin: Data Text
0.8316254184328699 -0.537070364185967 -0.1397618788477517
0.2493227124205337 -0.3668637263928257 0.06901906462061189
0.11705983373319 -0.294822693421514 0.08350275526841196
0.06285965283003611 -0.2490906095266856 0.08003532520278438
0.03484198151055658 -0.2136338172334057 0.07310119233925309
0.01867983960840663 -0.183994729694886 0.06545869564712851
0.008848125650660224 -0.1585437278373087 0.05794433397847219
0.002749934857614129 -0.136483877503034 0.05086967194398502
-0.001003663913517665 -0.1173057414022648 0.044354432040538
-0.003224849466135471 -0.1006207028644623 0.03843437694553215
-0.004419718442451844 -0.08610584121818739 0.03310445732232031
-0.004918572434774366 -0.07348377393991941 0.02833885656918212
-0.00494447113961605 -0.06251370066664032 0.02410144982606785
-0.004651945097135801 -0.05298608545681884 0.02035155272813043
-0.004150080084668798 -0.04471854076728449 0.01704721744329928
-0.003516907858352028 -0.03755229889130308 0.01414723535319585
-0.002808712019846781 -0.03134905854353322 0.01161223943481201
-0.00206619055392041 -0.02598823320687442 0.0094053627280352
-0.001318665509573977 -0.02136454803400056 0.007492533175000928
-0.0005870335952124812 -0.01738596778284403 0.005842560023831635
0.0001141169496126735 -0.01397193165669999 0.004426897361600594
0.0007749213803109728 -0.01105174039935446 0.003219315218548238
0.001389062703318623 -0.008563177280925271 0.002195722119591825
0.001952853687534311 -0.006451307417685551 0.001333897068543679
0.00246458348971399 -0.004667460823395373 0.0006134947463158517
0.002924130564573735 -0.003168535056802668 1.624871131252117e-05
0.003332640493753384 -0.001916428066576088 -0.0004740212848166502
0.003692263950158048 -0.0008775780266833072 -0.0008714937453491405
0.004005879315651674 -2.252659166456908e-05 -0.001188800082026257
0.004276693950544673 0.0006747150218208779 -0.001437593150872531
0.004508037003683266 0.00123720381858703 -0.001628414034756786
0.004703432164677694 0.001685237465902131 -0.001770326047229831
0.004866566288519831 0.002036511203520524 -0.001871131680710461
0.005001087909638638 0.002306465506599178 -0.001937772633686102
0.005110499867303142 0.002508606090408957 -0.001976395200090582
0.005198172080386042 0.002654688936970228 -0.001992303671424738
0.005267335989853956 0.002754881370711634 -0.001990046725561486
0.00532104730376834 0.002817947983533128 -0.00197354161143637
0.005362168917117593 0.002851421006745384 -0.00194614658591765
0.005393375786512691 0.002861740412958921 -0.001910712120345211
0.005417163345463633 0.002854378203873037 -0.001869639052752042
0.005435857144182298 0.002833954298685005 -0.00182493461846367
0.005451627461452997 0.002804336059731913 -0.001778259897236312
0.005466508176660952 0.002768727455910769 -0.001730970502664251
0.005482418343622577 0.002729744165922033 -0.00168415233894774
0.005501185808197087 0.002689478794951851 -0.001638652198631116
0.005524572913842136 0.002649552381117463 -0.001595102873425817
0.005554303913538585 0.002611159563180999 -0.001553943262917029
0.005592094143293057 0.002575097523860087 -0.001515433158411661
0.005639680850215484 0.002541789575802602 -0.001479663301420726
0.005698855944354236 0.002511293811712128 -0.001446559930260236
0.005771500769278477 0.002483304659492678 -0.001415884576557067
0.005859623377160144 0.002457138168991247 -0.001387227900771317
0.005965398529028619 0.002431711996165597 -0.001359998363336599
0.006091211059013628 0.002405504661078538 -0.001333404104140369
0.006239703035156437 0.002376507958667059 -0.001306428758744797
0.006413825447245244 0.00234215761061029 -0.00127779911877825
0.006616894985590981 0.002299252278891268 -0.001245945210130175
0.006852656755126334 0.002243846337035339 -0.001208950168406189
0.007125353535122785 0.002171129165050552 -0.001164490095006812
0.007439802593345033 0.002075269955439233 -0.001109760982944462
0.007801480669567398 0.001949242908930658 -0.001041392693538787
0.008216617190579088 0.001784612341339961 -0.0009553453785626117
0.008692296235409382 0.001571288511824596 -0.000846786142936877
0.009236570194396176 0.001297237233353258 -0.0007099459598110122
0.009858583967721556 0.0009481535173071308 -0.000537960664312761
0.010568698289404 0.0005070657775028755 -0.0003226742615432142
0.01137861237109291 -4.610298948698588e-05 -5.438211042387737e-05
0.01230151448153573 -0.0007350100419198881 0.0002784347491014354
0.01335224638184019 -0.001587420736344554 0.0006893274794242682
0.01454738876242281 -0.002635875915401716 0.001194207841573235
0.01590527444496821 -0.003918398638182673 0.001811928826126161
0.01744607656809786 -0.005479099837202884 0.002564788605321772
0.01919190082737927 -0.00736878814027801 0.003478710636249464
0.02116660299011682 -0.009645794383951967 0.004583621009292266
0.0233953501509583 -0.01237675270725671 0.005914291312684956
0.02590407210110434 -0.01563709249255227 0.007511090604815645
0.02871865355538414 -0.01951130045072763 0.009420483621092426
0.03186373158721232 -0.0240929089503852 0.01169541635211075
0.03536100470510845 -0.02948408103015562 0.01439539834012029
0.03922683281738398 -0.03579479673250357 0.01758642198561649
0.04346908660317879 -0.04314138261740107 0.02134073576589332
0.04808323177354986 -0.05164425016317992 0.02573611800468941
0.05304768024069938 -0.06142479125384949 0.03085448503878861
0.05831871962299964 -0.07260139587771182 0.03677948657788063
0.06382540531638921 -0.08528474924596763 0.04359302381258251
0.06946513811634955 -0.09957256996198764 0.0513707258962649
0.07510088688261858 -0.1155440072494621 0.06017639832600188
0.08056107126074191 -0.1332538018250123 0.07005607556330476
0.08564301951963811 -0.15272583240186 0.08103229075120486
0.09012024062867065 -0.1739448795477226 0.09309944566164957
0.09375296891081598 -0.1968435391652463 0.1062212044509042
0.09630064682781228 -0.2212776112772975 0.1203304540996648
0.09753630184273704 -0.2469749388150805 0.1353318919568778
0.09727077929728423 -0.2734213804371453 0.1511075149391319
0.09542883360317146 -0.2995840908354965 0.1675305855803669
0.09237146967191294 -0.3231457139357753 0.184528723231519
0.09053105639938883 -0.3378991678310371 0.2025074614408164
0.1058680395396795 -0.321449297757015 0.2268135130668541
0.3330994633942228 -0.1329648791599357 0.3584788494649382
0.878220341207576 -0.1882489149260695 -0.2398703439180918
0.3095562530756502 -0.1715806788493481 -0.005626867722166006
0.156157256276195 -0.1427575945627864 0.01942335660617222
0.09145062118249253 -0.119489822095146 0.02337895888847519
0.05764987833490869 -0.1011907358124049 0.02307663516611147
0.03768427881071119 -0.08631455540316661 0.02155748932322138
0.02500139194837777 -0.0739130686316022 0.01965357448088932
0.01660269910527264 -0.06342686753015971 0.01765856068476138
0.01092495355596481 -0.05449275510251338 0.01569774535427604
0.007067622305145681 -0.04684878666559739 0.01383188143395371
0.004470925824514574 -0.04029129143052585 0.01209178183353992
0.00276646275889104 -0.03465492467559081 0.01049191309954344
0.001701336600028411 -0.02980252027797179 0.009036911778727567
0.001096481086068116 -0.02561913807108048 0.007725185884162372
0.0008222246916548527 -0.02200801371150226 0.006551193136945859
0.0007831425588279126 -0.01888747667316545 0.005507075529052877
0.0009082250134129063 -0.01618846903113475 0.004583751117536275
0.001144286750197915 -0.01385248545863817 0.003771722047204006
0.001451408942094044 -0.01182985950111625 0.003061579478412508
0.001799684924813511 -0.01007832726521349 0.002444322629786534
0.002166873889124979 -0.008561824367928333 0.001911316112828957
0.002536630282489813 -0.007249469628294754 0.00145415124332679
0.002897149397982804 -0.006114708392364904 0.001064674035228941
0.003240099708462008 -0.005134592380712979 0.0007349193729837799
0.003559784699293326 -0.004289194342754332 0.0004573409106717857
0.003852591123974895 -0.00356115290152577 0.0002251906546164826
0.004116571445201282 -0.002935317236718927 3.264763783939067e-05
0.004351117397497623 -0.00239846098185991 -0.0001251904177907306
0.00455671072420332 -0.001939028516288233 -0.000252742595454155
0.004734545824411337 -0.001546880818744671 -0.0003544397335384088
0.004886185027848452 -0.001213082321513036 -0.000434412641729611
0.005013510861513823 -0.000929764217423525 -0.0004960122248744435
0.005118733378997757 -0.0006900193791131167 -0.0005420144653225475
0.00520422965041167 -0.0004877873812569453 -0.0005749874562573272
0.00527238753449322 -0.0003177428474892647 -0.0005972677412392805
0.005325571419328435 -0.0001752117080277946 -0.0006108422708860054
0.00536611364481826 -5.610298419203855e-05 -0.00061739019037977
0.005396277161633548 4.315374954283808e-05 -0.0006183661181347208
0.005418224486050066 0.0001256697344193061 -0.0006150246339166316
0.005434009200013759 0.0001941445347716683 -0.0006084302080217198
0.00544557604786715 0.0002509127703043186 -0.0005994782290588539
0.00545476333983922 0.00029798131304691 -0.0005889195178891287
0.005463309595196602 0.000337066574532057 -0.0005773775233733697
0.005472865013859473 0.0003696212414421899 -0.0005653639331725484
0.005485006058936976 0.0003968651385685162 -0.0005532914909907131
0.005501252586171254 0.0004198021669793515 -0.0005414862980194234
0.005523087007691225 0.0004392434315504024 -0.0005301968339265662
0.005551975523486365 0.0004558175026016961 -0.0005196021560550701
0.00558939096975141 0.0004699861431828327 -0.0005098172633350344
0.005636837501669112 0.0004820456501010581 -0.0005008975632919838
0.005695876878253943 0.0004921371682161856 -0.0004928406987882523
0.005768156757743704 0.0005002387785845469 -0.0004855872947584159
0.005855440932490103 0.0005061676993543007 -0.0004790191418551882
0.005959642050227761 0.0005095647765786359 -0.0004729560425183595
0.006082856883492809 0.0005098874145545573 -0.0004671499755302329
0.00622740482355226 0.0005063827117959968 -0.0004612775495451964
0.00639586977496122 0.000498071488894957 -0.0004549294191793387
0.006591146210162584 0.0004837081757403551 -0.0004475974740469858
0.006816489643292153 0.0004617512319875993 -0.0004386582973475777
0.007075572365114306 0.0004303095050397744 -0.0004273535669789495
0.007372544837506234 0.0003870956702782921 -0.0004127657887424378
0.007712103352552282 0.0003293528814823976 -0.0003937903863074138
0.008099563800879049 0.0002537896230954209 -0.000369100882717283
0.008540942976233177 0.0001564832820191986 -0.0003371064051000728
0.009043049133237101 3.279065784902243e-05 -0.0002959029114699132
0.00961357826206412 -0.0001227724210271811 -0.0002432254841450084
0.01026120863509429 -0.0003166496463611094 -0.0001763803367922987
0.01099570438431182 -0.0005563911541173646 -9.213332073979886e-05
0.01182804562875322 -0.0008507889129817374 1.33926407319372e-05
0.01277054597768476 -0.001210045793439086 0.0001447385716492951
0.01383690002513401 -0.001645940719035706 0.0003072115700163718
0.01504223092708635 -0.002171995744699268 0.000507239836448432
0.0164032204097846 -0.002803592783179962 0.0007526538577179391
0.01793815739689904 -0.003558092750082822 0.001052584197307536
0.01966674518429355 -0.00445492404134476 0.001417510984832669
0.02160980166697904 -0.005515605476639005 0.001859829751009223
0.02378889262442397 -0.006763624251612549 0.002394405088547527
0.02622570419556313 -0.008224190657044472 0.003038904135289915
0.028941075039144 -0.00992381589074323 0.003814081221178519
0.03195356292295165 -0.01188971598500456 0.004743855916313888
0.03527735820681547 -0.01414901057967518 0.005855390382602551
0.03891951811204086 -0.01672772411837364 0.007179283675797813
0.04287642192920445 -0.01964960550813 0.008749580867808414
0.04712944271870532 -0.02293486632854295 0.01060344908534629
0.05164007538377222 -0.02659895521694359 0.01278019083543581
0.05634485506602782 -0.03065155597346918 0.01531946900280547
0.06115084328024335 -0.03509592588329856 0.01825869085542202
0.06593277758944129 -0.03992860146826976 0.02162939965181821
0.07053330928542639 -0.04513911557367587 0.02545313517855226
0.07476796553283048 -0.05070882313538377 0.02973719506650732
0.0784363787890013 -0.05660685459046946 0.03447109336676694
0.08134163204277149 -0.06277955244758712 0.03962480422204376
0.08332124231509833 -0.06912663866538869 0.04514992844507549
0.08430121662867872 -0.07545084644542001 0.05098540219570408
0.084412053503977 -0.08135177293909679 0.05707207799771215
0.08430329420189085 -0.08599150771139656 0.06339444434354782
0.08618412926442581 -0.08753412600905638 0.07014203431743865
0.09803913455539179 -0.08170950112926069 0.0785939565647689
0.156080752245299 -0.05858884557123663 0.09881337796379043
0.5170225652080058 -0.007095462641688404 0.2714785436193554
0.8542186034409973 -0.1031658813010665 -0.2460241603363239
0.3232749886411255 -0.1127464000410285 -0.01622519630445622
0.1748303763046661 -0.1037115019366566 0.01089011895100289
0.1081541064704425 -0.09074430691957217 0.01666387378840629
0.07175662434456027 -0.07830493103212637 0.01768208120718931
0.04956410850723206 -0.06736266047568777 0.01715328795238957
0.0350574780700712 -0.05795000429488294 0.01602495539703023
0.02515370736914227 -0.04989723672103599 0.01465533770110385
0.01821890981821346 -0.04301382506252675 0.01320770069541946
0.01330332244627969 -0.03712709266332574 0.01176755088833246
0.009811841123932864 -0.03208748512354905 0.01038335098164883
0.007348979862959831 -0.02776701093931409 0.009082867645521289
0.005639970387807745 -0.02405670937045416 0.007881038413752419
0.004487578478082001 -0.02086421127628921 0.006784356654179958
0.003746873805022684 -0.01811150318683594 0.005793668929842935
0.003309589566665859 -0.01573289206449585 0.004906196163868967
0.003093927177888933 -0.01367317171740807 0.004116926116005943
0.003037658725864217 -0.01188599379432967 0.003419653372677983
0.003093305066288066 -0.0103324429583848 0.002807660638790736
0.003224651418037733 -0.0089798137286489 0.002274176189173849
0.003404205322580903 -0.007800557117819376 0.001812434610040427
0.003611261141961023 -0.00677140190590278 0.001415612220844321
0.003830400454612121 -0.005872604199127227 0.001076908667228552
0.004050296191594589 -0.005087329330599453 0.0007895327433996024
0.004262752273333319 -0.004401141673188847 0.0005469645996151348
0.004462044112032955 -0.003801604046759098 0.0003433650322384379
0.004644422653806513 -0.003277952937231207 0.0001737239111163805
0.00480773407524432 -0.00282084392169931 3.386695135466788e-05
0.004951143954591706 -0.002422132848399982 -7.997045882662967e-05
0.005074737720781724 -0.002074688021331842 -0.0001716283726768928
0.005179126239787765 -0.001772232452022166 -0.0002447126313376352
0.005265349915726613 -0.001509229674283173 -0.0003021055388040975
0.005334874012016065 -0.001280792567044484 -0.0003461628497795961
0.005389427286321425 -0.001082604126415497 -0.000379074648946957
0.005430830381987474 -0.000910845248431319 -0.0004028446818034114
0.005460943331840284 -0.0007621355540904318 -0.0004191661662259686
0.005481648444307068 -0.0006334880644843655 -0.000429461520645865
0.005494808276864918 -0.0005222660514380998 -0.0004349599512207013
0.005502228732021208 -0.0004261476314348944 -0.0004367223607368045
0.00550564444785051 -0.0003430921607626032 -0.0004356461131680425
0.005506714379288966 -0.0002713159782692918 -0.0004324859260669059
0.005507020227059192 -0.0002092631029705412 -0.0004278736584219354
0.005508069579057065 -0.000155589311445678 -0.0004223357538964902
0.005511303821263918 -0.000109137857552077 -0.0004163047417836946
0.005518109667693801 -6.892870100442675e-05 -0.0004101324981154815
0.005529833096748412 -3.413878792690442e-05 -0.0004040991139763598
0.005547795691957761 -4.098231351550152e-06 -0.0003984226732759081
0.005573312779194595 2.17277284418797e-05 -0.0003932647720197334
0.005607713482964236 4.373573771897324e-05 -0.0003887370269295944
0.005652362247323037 6.219816381708191e-05 -0.0003849036703753453
0.005708682184358661 7.725527394550711e-05 -0.0003817850279671553
0.005778179964647124 8.892438396503375e-05 -0.0003793572625818984
0.005862472778812977 9.708462787542974e-05 -0.0003775528792778701
0.005963317210193997 0.0001014831374203415 -0.0003762575269025284
0.006082640678654197 0.0001017116818069374 -0.0003753073874936813
0.006222575409387548 9.720631288090299e-05 -0.000374482685086047
0.006385495698082805 8.721703238660924e-05 -0.0003735015545323759
0.006574058514127772 7.079952695845725e-05 -0.0003720096112035114
0.006791248289767277 4.677430461430627e-05 -0.0003695695223751237
0.007040426056143297 1.371118415191093e-05 -0.0003656454684647542
0.007325383900177288 -3.012382017686994e-05 -0.00035958723604221
0.007650404744696285 -8.679603405605005e-05 -0.000350608481428535
0.008020328015256159 -0.0001587666042004077 -0.0003377631126468051
0.008440622188113497 -0.0002489333724295116 -0.0003199119437689048
0.008917466332568954 -0.0003607101553891251 -0.00029568926653059
0.009457837021253874 -0.0004980789622110224 -0.0002634670239735985
0.0100695954570391 -0.0006656820484131494 -0.0002213050710911626
0.01076158606221421 -0.0008688840607517546 -0.0001668581058066551
0.01154376154370036 -0.001113869740879092 -9.730119926128911e-05
0.01242729662832879 -0.001407710240595686 -9.3242806914874e-06
0.01342464510069892 -0.001758447916610636 0.0001009502776043112
0.01454961303784935 -0.002175128347463337 0.00023828933863505
0.01581751504575528 -0.002667849501165726 0.0004085854660009303
0.01724525440542257 -0.003247741611608461 0.0006187520710521596
0.01885119574197798 -0.003926904803383126 0.0008767674146238227
0.0206549673926712 -0.004718236008002729 0.001192213705327797
0.02267721686605305 -0.005635186494727913 0.001576820943555694
0.02493913247040509 -0.006691350937344332 0.002044839959350011
0.02746164574994971 -0.007899926667067833 0.00261336814716967
0.03026417806716215 -0.009272969169915787 0.003302515630579774
0.03336273590961637 -0.0108204824266668 0.004135597475002388
0.03676729611257618 -0.01254932888728145 0.005139474931618183
0.04047833063378457 -0.01446206411871104 0.006344752802150368
0.04448242294426966 -0.0165557453095329 0.007785659108360843
0.04874715557017718 -0.0188209504078639 0.009499235413371018
0.05321560104485092 -0.02124114260019393 0.01152368072677055
0.05780125863066026 -0.02379261737660896 0.0138956887273604
0.06238475888555598 -0.02644506888857068 0.01664659537551673
0.06681421802547964 -0.02916254190199164 0.01979772877525
0.07091166224533248 -0.03190395061701218 0.02335544222173262
0.07448830576210765 -0.03462140999152163 0.02730675219015068
0.07737249361518164 -0.03725323543610045 0.03161696409671821
0.07945728029448364 -0.03970639824282007 0.03623089272313593
0.08078614998643803 -0.04181974189823196 0.0410800928612398
0.08173192275510577 -0.04329296061680837 0.04610227032261783
0.08344319226283207 -0.04355588234401547 0.05129699462235157
0.08915977814935308 -0.04154905564267449 0.05693232220154369
0.1088285489290029 -0.03549905631899181 0.06458784627918782
0.1801693047072597 -0.02363172831914947 0.08526844826466858
0.5416082235363308 -0.0103909731802197 0.2582204339826665
0.8202107478197714 -0.06860152971599828 -0.2440324677411899
0.3206246053967489 -0.0865374101324598 -0.02206404283181485
0.1826251549956043 -0.08649534251144207 0.005485186836962956
0.1186566382365016 -0.07971976245987883 0.01253265608310268
0.08216044872927229 -0.07094987208743027 0.01468105815276922
0.05900024391903434 -0.06216179124193505 0.0150097904542695
0.04334104417986094 -0.054081173435728 0.01450510344331697
0.03232703676596686 -0.04691414059434212 0.01358413839288628
0.02439327577503783 -0.04066285448122068 0.01245882259547195
0.01860418778290037 -0.03525431487272757 0.01125050966247875
0.01435964594281904 -0.03059247924137056 0.01003338045325985
0.01125255734423669 -0.02657953068321798 0.008853600375743544
0.008994767336867326 -0.02312447075405064 0.007739287861637783
0.007375848153245049 -0.02014624244371336 0.006706387330854234
0.006238708013293376 -0.01757439376705077 0.005762509013093949
0.005464277580224792 -0.01534859915641526 0.004909694246518669
0.00496138620102871 -0.01341770192967442 0.004146353952764223
0.004659803639553708 -0.01173857347016163 0.003468698582037902
0.004505295870061163 -0.01027497854162366 0.002871707641836012
0.004455995365034152 -0.008996510055566192 0.002349796117687549
0.004479709177668146 -0.007877637559165374 0.001897034712638953
0.004551844293017975 -0.006896882769123548 0.001507185833486292
0.004653779043029428 -0.006036114242535169 0.001173860279444227
0.004771550983171028 -0.005279950191156987 0.0008905579854787621
0.004894790124172832 -0.004615272386689549 0.0006509651565885303
0.005015966131550032 -0.004030828788472594 0.0004493856531346123
0.005129820157891003 -0.003516915921762041 0.0002809166993501131
0.005232929832781612 -0.003065123415199598 0.0001414691799580178
0.005323394098124554 -0.002668125458866812 2.736383166835809e-05
0.005400403071662685 -0.002319503455005244 -6.515419650438352e-05
0.00546380751925327 -0.002013604802217071 -0.000139616669027712
0.005513988839508512 -0.001745432845333634 -0.0001988472734513435
0.005551836538294749 -0.001510560785189261 -0.0002451403042923653
0.005578577847990855 -0.001305060900902377 -0.00028062312019768
0.005595593872712608 -0.001125441236104376 -0.0003072387349152177
0.005604354669443142 -0.0009685963918415496 -0.000326627815527427
0.005606394117344786 -0.0008317650147396141 -0.0003401619138482217
0.005603262881299631 -0.0007124976625387061 -0.0003490248316527344
0.005596486605373437 -0.0006086213358784926 -0.0003542345912232305
0.005587547079285059 -0.0005182188608316035 -0.0003566526988125517
0.005577874193141904 -0.0004396003490851058 -0.0003570009618382346
0.005568841608876259 -0.0003712885925651224 -0.0003558851399107163
0.005561767120729574 -0.0003119948199225684 -0.0003538086074466106
0.005557918301927867 -0.0002606112332645253 -0.0003511875150004745
0.005558521586279231 -0.0002161877981621126 -0.0003483603596606344
0.005564774197965269 -0.0001779316290323277 -0.0003456002763329785
0.005577858152263864 -0.0001451867601071524 -0.0003431213773614282
0.005598956427942887 -0.000117437567803927 -0.0003410875710889614
0.005629270628385333 -9.429150703242372e-05 -0.000339615942387476
0.005670040439745442 -7.548914089985666e-05 -0.0003387826313295919
0.005722564403506165 -6.088801382333688e-05 -0.0003386235375923303
0.005788222519162166 -5.047967316452332e-05 -0.0003391374717591429
0.005868500323332288 -4.437745357139783e-05 -0.0003402842683924967
0.005965015115079823 -4.283850625879215e-05 -0.000341985291137576
0.006079544074562443 -4.62563704682632e-05 -0.0003441188388196399
0.006214055078725586 -5.519121258405831e-05 -0.0003465178699325508
0.006370740056464446 -7.036612854495747e-05 -0.0003489623449428999
0.006552051794635588 -9.270641611710357e-05 -0.0003511737919939459
0.006760744120070944 -0.0001233432213497268 -0.0003528038951232365
0.006999916506043866 -0.0001636604020780969 -0.0003534250577333879
0.007273063205874867 -0.0002153071518147408 -0.0003525142250717257
0.007584127882823933 -0.0002802562539405874 -0.0003494387436159563
0.007937563546169684 -0.0003608244810055146 -0.0003434333089500787
0.008338399667652518 -0.0004597423051816125 -0.0003335760886546413
0.008792318126604578 -0.0005801851101245237 -0.0003187573695464872
0.009305736090838719 -0.0007258506436144571 -0.0002976556158100426
0.009885890508739484 -0.0009009977242963999 -0.0002686898977422512
0.01054093508965037 -0.001110528466212491 -0.000229940494566077
0.0112800660425016 -0.001360028175113782 -0.0001790816771230871
0.0121136457823392 -0.001655844024770772 -0.0001133937695092575
0.01305327916029403 -0.002005100758098996 -2.967859816146154e-05
0.01411190674650038 -0.00241573535336022 7.604945607576635e-05
0.01530399060917165 -0.002896479047248095 0.0002087866689779452
0.01664565438451847 -0.003456832252672624 0.0003744187979748163
0.01815463934141441 -0.004106911006834196 0.0005797852963102937
0.01985019709794297 -0.004857247865117767 0.0008332226941743793
0.02175296300374777 -0.005718466412698456 0.00114512999824176
0.02388463154668242 -0.006700841603232595 0.001528377877767953
0.02626733491278967 -0.007813661452241225 0.001998699587690294
0.02892257883912614 -0.009064424451404433 0.002574930118775526
0.03186952197943298 -0.01045779400999944 0.003279325868737437
0.03512249700612587 -0.01199440229086245 0.004138046721727347
0.03868758905104116 -0.01366950202511584 0.005181539077413784
0.0425581572236995 -0.01547160652435911 0.006444595711186883
0.04670942496193421 -0.01738127338886924 0.007965704095957654
0.05109243041287753 -0.01937027919944577 0.009785458990419733
0.05562821899828949 -0.02140141888436617 0.01194381112367012
0.06020376923214604 -0.02342917627009137 0.01447587213982465
0.06467194044788514 -0.02540118606785383 0.01740662690345101
0.06885854772993685 -0.02726005871179901 0.02074500284220158
0.07258039572911244 -0.02894424969412646 0.02447835157401454
0.0756794476280383 -0.03038572108537806 0.02856896219141641
0.0780818484560051 -0.03150091941599233 0.0329546631929367
0.07990242361491226 -0.03217077901947479 0.03755654358213202
0.08165149847388888 -0.03220602750304066 0.04230108984946294
0.08471319259265854 -0.03130125236332527 0.04718334134585731
0.09264637773815593 -0.02901404491467778 0.05249099089329714
0.1154716863399707 -0.02492825198637741 0.05987168414016187
0.1890441234963658 -0.01952354290985467 0.08028139367485286
0.541057529824474 -0.01738312678455019 0.2492587178054441
0.7825443043212986 -0.05066455885593898 -0.2405181629149643
0.3114104348504208 -0.0720222827870777 -0.02744439136108198
0.1843748032929976 -0.07659384599970483 -0.0001220486480776786
0.1250123027874312 -0.073801332311297 0.007904262416744858
0.09001971033951291 -0.06777315641296289 0.01115619078768178
0.06691961215291843 -0.06066707448776099 0.01243360719257247
0.0507101679065072 -0.0535567976735245 0.01267062282868122
0.03893106036770552 -0.04692793531275863 0.01230452904299202
0.03019776731780215 -0.04096399168138659 0.01158460689701148
0.02365325296990979 -0.03570031040014759 0.01066819347146388
0.01872799658598815 -0.03110342785664821 0.00965907644029775
0.01502292357042068 -0.02711118836510896 0.008626294879506825
0.01224740180795918 -0.02365278029056469 0.007615096021493978
0.01018394947231697 -0.02065850743328747 0.006654028627211753
0.008666807867367003 -0.0180642487537126 0.005759858323014982
0.007568110287180242 -0.01581316121432424 0.004941208812733949
0.006788472863538278 -0.01385596206166504 0.004201181630039205
0.006250338310691186 -0.01215051038971026 0.003539300053721295
0.005893118879384559 -0.01066107210510256 0.002952859685970923
0.005669540667779718 -0.009357491732585071 0.002437885109558361
0.005542869901750043 -0.008214359090313979 0.001989562157910601
0.005484736531550058 -0.00721026158745885 0.001602419724597209
0.005473398254327842 -0.006327105499642458 0.001270585180372123
0.005492324219139966 -0.005549543604027182 0.0009879072671411238
0.005529030577866699 -0.004864487242319491 0.0007482947318423962
0.00557424004092372 -0.004260717059857682 0.0005461882792179141
0.005621244134511011 -0.003728555215554415 0.0003767656401575697
0.005665412097082573 -0.003259612725377819 0.0002359922586620321
0.005703832432807858 -0.002846573477062564 0.0001202384317572966
0.005734849467967317 -0.002483021183342901 2.580242497950112e-05
0.005757598413802176 -0.00216329508004002 -5.081269072075754e-05
0.00577184366108805 -0.00188238397794093 -0.0001124069402256625
0.005777938080981362 -0.001635838466645675 -0.0001612496374128279
0.005776641644457864 -0.001419701415480749 -0.0001994337009937219
0.005768925206957237 -0.001230446883052843 -0.0002288720581391886
0.005755893947196896 -0.001064929818685409 -0.0002511761542031871
0.005738754962472194 -0.0009203495407586629 -0.0002676919451738145
0.005718765064054574 -0.0007942124315537625 -0.0002795754755235517
0.005697184506739085 -0.0006843055541661349 -0.0002878217474308237
0.005675254049494114 -0.0005886672488617061 -0.0002932691743071779
0.005654183952674737 -0.0005055712970456216 -0.0002966218284452616
0.005635146881691891 -0.0004334992801847765 -0.0002984679124975544
0.005619276112630113 -0.0003711327520367536 -0.0002992988417889903
0.005607668835150318 -0.0003173284770777557 -0.000299519374603688
0.005601393420236402 -0.000271115522244377 -0.0002994622565965098
0.005601499180775162 -0.0002316730489390496 -0.0002993956203537671
0.00560902865798025 -0.0001983343880263281 -0.0002995341943917025
0.005625031598301711 -0.0001705645921899697 -0.0003000434656079596
0.005650580843608081 -0.0001479714662306582 -0.000301047809368801
0.005686789446691745 -0.0001302855989979856 -0.0003026319847534503
0.00573482950439264 -0.0001173763922672739 -0.0003048465988608484
0.00579595216790015 -0.0001092351559984365 -0.0003077071601014461
0.005871509508702924 -0.0001059987000940255 -0.0003111971228352229
0.005962977797735562 -0.0001079337349925874 -0.0003152645752205186
0.006071983025599611 -0.0001154685561833686 -0.000319822950333909
0.006200328311799273 -0.0001291822520455307 -0.0003247452117694965
0.006350024170546823 -0.0001498429545150418 -0.0003298621216773438
0.006523321363134698 -0.0001784029888218029 -0.0003349535679753152
0.006722747432006826 -0.0002160467243137354 -0.0003397439963764975
0.006951146785180166 -0.0002641905170196522 -0.0003438900891983601
0.007211725667388602 -0.0003245410587772973 -0.0003469726937627428
0.007508101905933107 -0.0003991041799966746 -0.0003484803422004505
0.007844360496562628 -0.0004902516781772918 -0.0003477959747837426