# OOMMF: rectangular mesh v1.0
# Segment count: 1
# Begin: Segment
# Begin: Header
# Title: 
# Desc: time = 2.0771574540891234e-10
# Desc: stepsize = 3.1393459805403957e-13
# Desc: step = 460
# meshunit: m
# valueunit: (none)
# valuemultiplier: 218608.944096809
# xmin: 0
# ymin: 0
# zmin: 0
# xmax: 4e-07
# ymax: 1e-07
# zmax: 4e-09
# ValueRangeMaxMag: 1
# ValueRangeMinMag: 0.003867573588627464
# meshtype: rectangular
# xbase: 2e-09
# ybase: 2e-09
# zbase: 1e-09
# xstepsize: 4e-09
# ystepsize: 4e-09
# zstepsize: 2e-09
# xnodes: 100
# ynodes: 25
# znodes: 2
# End: Header
# Begin: Data Text
0.8315254574770118 -0.5374968593787532 -0.1402205758431653
0.2492059253646042 -0.3674563273350271 0.06841645185056044
0.1169451659448916 -0.2953924078421643 0.08295887218727067
0.06275501589311354 -0.2496056777611532 0.07956708824307844
0.03474800328812961 -0.2140902972392145 0.0727015923370581
0.01859531723946984 -0.1843965539214368 0.06511681449158284
0.008771568129745626 -0.1588970935496165 0.05764983674940252
0.002679980486181814 -0.1367952074702586 0.05061390724645972
-0.001068161189423196 -0.1175808509532801 0.04413043951691625
-0.003284847176066382 -0.1008645348028539 0.03823647339576824
-0.004476016665149713 -0.08632240475377223 0.03292789730395315
-0.004971820854003888 -0.07367617615683084 0.02817967431357052
-0.00499517311194378 -0.0626843336071006 0.02395637251280352
-0.004700455902608005 -0.05313684289449078 0.02021813492584459
-0.004196596951306218 -0.04485103809932295 0.01692383724816916
-0.003561461250286913 -0.03766807380239129 0.01403305055768778
-0.002851216531746949 -0.03144969745461536 0.01150714330934693
-0.002106519946397076 -0.02607536704524376 0.009309528602382103
-0.001356686499164404 -0.02143979021998462 0.007406072753002002
-0.0006226675250539928 -0.01745079485768913 0.005765452858128101
8.084147368557874e-05 -0.01402756513048195 0.004358736514322885
0.0007439092720832761 -0.01109912804365807 0.003159308315247045
0.001360186415907444 -0.008603002519537519 0.002142988067461375
0.001926025193442699 -0.006484105226565151 0.001287677435671742
0.002439830582510326 -0.00469382833611131 0.0005733741706430315
0.002901560751835096 -0.003189216414978747 -1.793022786749778e-05
0.003312384262789932 -0.001932323542437833 -0.000502400594377519
0.003674363519141317 -0.0008896409878153272 -0.0008943708102213592
0.00399017453888584 -3.155536723263698e-05 -0.001206658357557481
0.004262929405754873 0.0006680834957734805 -0.001450829310989461
0.004496015282250563 0.0012323787615542 -0.00163708058550377
0.004692984075272313 0.001681682041904092 -0.001774492892745292
0.004857491729819655 0.002033840538423538 -0.001871051542592197
0.004993186545544412 0.002304457621176312 -0.001933720095371938
0.005103635570993002 0.002507127648752108 -0.001968772000184831
0.005192262602230224 0.002653668464932893 -0.00198160566076492
0.005262311356473695 0.002754309726459678 -0.001976934985672416
0.005316862522119984 0.002817838857649518 -0.001958772779067353
0.005358806379910205 0.002851764121542296 -0.001930436989441453
0.005390833319214468 0.002862479450413844 -0.001894799187139985
0.005415419955462993 0.002855417070127117 -0.001854229297089832
0.005434845021117627 0.002835193111243178 -0.001810665352674573
0.005451254866965923 0.002805658588020388 -0.001765617873904175
0.005466670250106095 0.002769995583907359 -0.001720240401080488
0.005482986186628845 0.002730831861301215 -0.001675473791193041
0.005502002562554383 0.002690292208470022 -0.001632028341330701
0.005525474000282768 0.002650053222576935 -0.001590357000205239
0.005555145175985733 0.002611339743663619 -0.001550750260141643
0.005592758030877228 0.002574984143307337 -0.001513348697182754
0.005640080595983134 0.002541452572188024 -0.001478159668865952
0.00569895046872114 0.002510826392591886 -0.001445082506382472
0.005771302301240631 0.002482815098895475 -0.001413848892889194
0.005859189642043255 0.002456718920168607 -0.001384085778300386
0.005964830063411993 0.002431444551791298 -0.001355269202942339
0.006090652225037791 0.002405456751742269 -0.001326723154533248
0.006239326338442437 0.0023767035930202 -0.001297620897032819
0.006413805953129768 0.002342577871573719 -0.001266840386255137
0.006617398089581512 0.00229983411458065 -0.001232975913294029
0.006853851480733808 0.002244518291735975 -0.001194336045374938
0.007127404339298461 0.002171798666579998 -0.001148811654270204
0.007442834920015411 0.00207580622647365 -0.001093770870468146
0.007805585514201769 0.00194950988031123 -0.001025913004501597
0.008221877377262127 0.001784491403996997 -0.0009412421791718369
0.008698812254479523 0.001570678979584518 -0.0008350368459564494
0.009244459124716435 0.001296017494946932 -0.0007014907522725347
0.009867962119134431 0.0009461387362608724 -0.0005336467236874096
0.01057970591306779 0.0005040075677064577 -0.0003231813646794129
0.01139144090466516 -5.052514438323134e-05 -6.018490231456753e-05
0.01231642529026375 -0.0007412194005794071 0.0002668561048631172
0.01336952890328037 -0.00159601045590743 0.0006716265516515902
0.01456729957318903 -0.002647623037775845 0.001170201192435718
0.01592808852701305 -0.003934159916742026 0.001781462605212045
0.0174721004100532 -0.005499776661848131 0.002527565770040887
0.0192213694233069 -0.007395414455457641 0.003434176781828234
0.0211996181762342 -0.009679490967746139 0.00453127705974022
0.02343189704005673 -0.01241860302492586 0.005853698642256436
0.02594406610085756 -0.01568805906166636 0.007441625506412215
0.02876199166984346 -0.01957219549543622 0.009341353450188931
0.03191028253995562 -0.02416443665968005 0.01160565368770501
0.03541053785337821 -0.02956691649954461 0.01429395270272784
0.03927892953454545 -0.03588963432101624 0.01747245076361643
0.04352304868942686 -0.0432489496860055 0.02121364747952505
0.04813801497651659 -0.05176520592933264 0.02559584072107876
0.05310184966674395 -0.06155954368057552 0.03070154100172167
0.05837046716459467 -0.07274995789736918 0.03661448511604858
0.06387266486926109 -0.08544660467374506 0.04341646993852161
0.06950564968876033 -0.09974662377962051 0.05118300716145204
0.07513226854284451 -0.1157286222915732 0.05997758281206245
0.08058098387302003 -0.1334468962976068 0.06984597959884217
0.08564928561924073 -0.1529250467489126 0.0808108256598203
0.09011102610711244 -0.1741476803997886 0.09286674968513985
0.09372702325544356 -0.1970473151967729 0.1059776485255814
0.09625744097975272 -0.2214798179950608 0.1200764765343251
0.09747604708122568 -0.2471731970847363 0.1350678360991346
0.09719426609828559 -0.2736135786535202 0.1508333985119278
0.0953368343462542 -0.2997686632255427 0.1672456327394273
0.09226345054967156 -0.3233221859559106 0.1842312196065015
0.0904015249912007 -0.3380696860539965 0.202195128136169
0.1056901775756633 -0.3216246047559974 0.2264839037479189
0.3326767087959476 -0.1331921903290036 0.3581063436893133
0.8778318629907483 -0.1883766891295676 -0.2406129581361927
0.3093912457644375 -0.1718163193776386 -0.006587998808816595
0.1560589200891019 -0.1430158303985099 0.01854908552645492
0.09138016779062909 -0.1197361049535096 0.02261923367581114
0.05759322083205715 -0.1014136606305102 0.02242182831531186
0.03763504587370565 -0.08651184063976808 0.02099189178901405
0.02495638032288676 -0.07408598429028672 0.01916217779268122
0.01656024816043971 -0.06357794167744293 0.01722865968346818
0.01088421602011367 -0.05462477385013419 0.0153190093446435
0.007028165195930645 -0.04696435942012648 0.01349587728751327
0.00443253376162463 -0.04039267955625114 0.0117915239430765
0.002729030130049901 -0.03474399986076607 0.01022162153812672
0.001664794746341189 -0.02988079610099484 0.00879187802760566
0.001060774728585998 -0.02568784290466926 0.007501852234994127
0.0007873239461221373 -0.02206817591093491 0.006347067341651514
0.0007490818421457979 -0.01894000241960895 0.005320631940905931
0.0008751057607514829 -0.01623419515271296 0.004414326165509917
0.001112257840467451 -0.01389220107078419 0.003618973944201829
0.001420668730311994 -0.01186430058267874 0.002925100675281421
0.00177043865311673 -0.01010815666872911 0.002323553981627559
0.002139259671456669 -0.008587604638611591 0.001805304138815182
0.002510722306324386 -0.00727165272096227 0.001361584423715892
0.002872952249125984 -0.006133646289154801 0.0009842022310618986
0.003217566038979637 -0.005150574332979913 0.0006653784149828985
0.003538895599735948 -0.00430249882088043 0.0003979626416715584
0.003833372988430516 -0.003572086749736596 0.0001754617423159703
0.004099095566640234 -0.002944223186011436 -7.97439609378919e-06
0.004335453540163426 -0.002405691706541712 -0.0001574423224145152
0.004542792382734358 -0.001944902650580944 -0.0002775332096939753
0.004722185904583964 -0.001551667040237117 -0.0003725018955584868
0.004875222039101717 -0.001217011494562893 -0.000446051734784046
0.005003838817193106 -0.000933033008591187 -0.0005015299309444943
0.005110245106206968 -0.000692777456230473 -0.0005418717525864076
0.005196798820686818 -0.0004901345997839683 -0.0005696248286159439
0.005265923199729364 -0.0003197417932409792 -0.0005872425316739176
0.005320026849848608 -0.0001768992521950952 -0.0005968131387502068
0.005361441587688942 -5.74996377901235e-05 -0.0006002008798454154
0.005392431023834563 4.203226459176401e-05 -0.0005989665019460228
0.005415164657920276 0.0001247985677101664 -0.0005943271961416054
0.005431708105112822 0.0001934849425270995 -0.0005873799162565719
0.005444000472549295 0.0002504141687542383 -0.0005789896109440341
0.005453840485150212 0.0002975889135904529 -0.0005698233191462738
0.00546293929693691 0.0003367208847414766 -0.0005603189218815927
0.005472941814404057 0.0003692619275280162 -0.0005507437358156238
0.005485417416428218 0.0003964374951584445 -0.0005413250957830115
0.005501870763244212 0.0004192675706370161 -0.0005322011473056002
0.005523775683582295 0.0004385805602789904 -0.0005233847535912015
0.005552613389352449 0.000455023058589074 -0.0005148539233254742
0.00558988550201431 0.0004690711665452315 -0.000506563354146996
0.005637123451485722 0.0004810380353892328 -0.0004984531701061596
0.005695925615360422 0.0004910738892562794 -0.0004904738249825909
0.005767981042452813 0.0004991637804357495 -0.0004825325016473798
0.005855090986582536 0.0005051222995830711 -0.0004745572118862974
0.005959208843147628 0.0005085873364768899 -0.0004664590334904985
0.006082465289767569 0.0005090046376743069 -0.0004581409904296052
0.006227198269538406 0.0005056071472510639 -0.0004495230804481147
0.006395993867776392 0.0004973950494711376 -0.0004404049264425031
0.00659174538819472 0.0004831068903211465 -0.000430491590550614
0.006817717224319202 0.0004611825811110122 -0.0004194414538649746
0.007077571244967778 0.0004297176680395551 -0.0004067697774320271
0.007375424689123988 0.0003864091619001506 -0.0003917869592185906
0.007715956270430099 0.0003284965664282199 -0.0003734865197925238
0.008104480231611786 0.0002526852125900338 -0.000350593496892674
0.008547020676215652 0.0001550530044309084 -0.0003216500302482012
0.009050382541012619 3.094656196227772e-05 -0.0002847256012361317
0.00962224886747764 -0.0001251314147589545 -0.0002374660949470908
0.01027131860097311 -0.000319647816616015 -0.0001770007056818845
0.01100739431504054 -0.0005601774505583865 -9.987249972090372e-05
0.01184149720405517 -0.0008555552014738044 -2.232181709452923e-06
0.01278594964179247 -0.001216033452582505 0.0001205586250015231
0.01385443991526947 -0.001653439271057006 0.0002739317911528194
0.01506214564548198 -0.002181321636603082 0.0004643065931603769
0.01642576518073636 -0.002815090462909679 0.0006993177486909489
0.01796350917130506 -0.003572133649253134 0.0009877515993857618
0.01969500302796634 -0.004471888488758092 0.001340083639799638
0.02164100781285733 -0.005535842836960122 0.001768760687549337
0.02382304879999671 -0.006787435610573228 0.00228845451678291
0.0262627927454722 -0.008251816604855484 0.002916673884773792
0.02898101599822868 -0.009955448111680894 0.003674009105423855
0.03199614498385459 -0.01192550916252276 0.004584280038547026
0.03532217635013483 -0.01418908572022179 0.005674877807490026
0.03896591574897222 -0.01677215282201379 0.006976728392137566
0.04292346994074999 -0.01969838645949292 0.008524538657392982
0.04717590224865711 -0.0229878848907918 0.01035628989609425
0.05168439324403706 -0.02665596102698326 0.01251160645149173
0.05638525072281935 -0.03071215517338046 0.01503029623890715
0.06118531953992561 -0.03515960499941777 0.01794991668173605
0.06595915088962828 -0.03999477329125368 0.0213019258984458
0.07054934836540674 -0.04520718742244684 0.02510784386224212
0.07477150905646894 -0.05077826977959714 0.02937533027868983
0.07842554062790129 -0.0566772813202651 0.03409436853276519
0.08131505569122933 -0.06285073384922577 0.03923535873024497
0.0832782481470416 -0.06919853441743791 0.04475008933762087
0.08424182868333301 -0.07552360208985701 0.05057735054124366
0.08433679431139954 -0.08142572902660497 0.05665742828771651
0.08421243721452834 -0.08606727356694721 0.06297364640592304
0.0860760330438055 -0.08761284663234471 0.06971407481387344
0.09790545452904889 -0.08179354726005442 0.07815656923223138
0.1558868595478579 -0.05868303953486623 0.09836339231858061
0.5165682366931078 -0.007206097083195678 0.2709892222793061
0.853691625552806 -0.1032340353692863 -0.2467831894952074
0.3230574187968261 -0.112888876367706 -0.01723808629846869
0.1747231640096387 -0.103881819546404 0.009955249310729813
0.1080944318069481 -0.09091703206927125 0.01584353416291774
0.07171821557298973 -0.07846748179534582 0.01696990268692763
0.04953490325560079 -0.06750993780002196 0.01653470574192373
0.03503172687781063 -0.05808079786813345 0.01548523577095976
0.02512872503289567 -0.05001220247911957 0.01418165445377224
0.01819357112884771 -0.04311440427088945 0.01278944652397344
0.01327726961508242 -0.03721495126346661 0.01139596230456405
0.009785085841243966 -0.03216424009010375 0.01005108163730527
0.007321690723823788 -0.02783410575007049 0.008783781928910732
0.005612334060448423 -0.02411537902288393 0.007610109673614647
0.004459743121878571 -0.02091549856849256 0.006537740747081019
0.00371895484885817 -0.01815629805296693 0.005568625712974089
0.003281718075160067 -0.01577196883444801 0.004700997420836855
0.003066270866098231 -0.01370722122049584 0.003930743620059895
0.00301042389777228 -0.01191563915730303 0.003252015241524391
0.003066752966245245 -0.01035824482049911 0.00265804589595697
0.003199064184500635 -0.009002265599677149 0.002141904116007169
0.003379810150511923 -0.007820080135208185 0.001696428175274072
0.003588219182761192 -0.006788341837307122 0.001314440930399267
0.003808784807882032 -0.005887241893072321 0.0009890984005214802
0.004030095251388427 -0.005099898982199445 0.0007137907954172306
0.004243948434695575 -0.004411857722599795 0.0004823979013767132
0.004444646161387634 -0.00381068044665761 0.0002893413182752584
0.004628487752855762 -0.003285612758283376 0.0001295951357158712
0.004793341682786732 -0.002827310658466313 -1.189762375553928e-06
0.004938260250774328 -0.002427613723812881 -0.0001069317812346932
0.005063210781866323 -0.002079363255110044 -0.0001912820786689878
0.005168823629104039 -0.001776256003694088 -0.000257407160979215
0.005256197564331106 -0.00151272998890843 -0.000308182564506666
0.005326801879727668 -0.001283871068738947 -0.0003461233106935672
0.005382342579961799 -0.001085334960910887 -0.0003734025962478697
0.005424667009856385 -0.0009132787767858534 -0.0003921460604139632
0.005455672270712591 -0.0007643047731620736 -0.0004041615403985576
0.00547723227845543 -0.0006354129304626995 -0.0004110666297862227
0.005491199925471734 -0.0005239623134933515 -0.0004142041723155388
0.005499380207595985 -0.0004276332143089737 -0.0004145950843852165
0.005503518289029389 -0.0003443924724026136 -0.0004131583561478807
0.005505271100378404 -0.000272461815233056 -0.000410612404359046
0.005506183518509382 -0.000210290654867899 -0.0004074966757628843
0.005507736114887504 -0.00015653740124863 -0.0004041380790187609
0.005511369087673295 -0.0001100496072396831 -0.0004007071693082479
0.005518469009245405 -6.984286689111289e-05 -0.0003973500725392488
0.00553037182103261 -3.508860096683437e-05 -0.0003941503483254646
0.005548391431877662 -5.104086342791556e-06 -0.0003910791118736097
0.005573857140289494 2.065400003846552e-05 -0.0003880894042162067
0.005608126669004156 4.259555118941668e-05 -0.0003851272605860499
0.005652589717229083 6.100079403983205e-05 -0.0003821379191100884
0.005708701931225021 7.601989843564175e-05 -0.0003790969589978133
0.005778006795926857 8.767145872288235e-05 -0.0003759473959105559
0.005862154451311304 9.583742684965427e-05 -0.0003726718881111024
0.005962938568671345 0.0001002579131887625 -0.0003692515750808924
0.006082315882328248 0.0001005207481043796 -0.0003656753288276428
0.006222434214014989 9.604836938269705e-05 -0.0003619764570753881
0.006385669247959255 8.608388601506161e-05 -0.0003580865948680648
0.006574677116498203 6.966788393617235e-05 -0.0003538723774536728
0.006792452607619662 4.561366560263551e-05 -0.0003491857940538599
0.007042348040039339 1.247845390052826e-05 -0.0003437767395344468
0.007328125765463826 -3.147492490425146e-05 -0.0003372450981199475
0.007654054949349465 -8.832044419090339e-05 -0.0003289156911896298
0.008024974150647738 -0.000160520257566193 -0.0003179054292144588
0.008446357291044246 -0.0002509814826915798 -0.000303222618311044
0.008924375318773473 -0.0003631208221810558 -0.0002834840786976995
0.009465986625924802 -0.0005009350443479239 -0.0002569816629142018
0.01007906814118441 -0.00066907742920898 -0.0002215927194379548
0.01077249514724434 -0.0008729372319891366 -0.000174737565931755
0.01155625436915639 -0.001118720065397181 -0.0001136064327734695
0.01244152958032172 -0.001413524140795477 -3.478439068376995e-05
0.01344077506347958 -0.001765409524623202 6.572236278379638e-05
0.0145678572736147 -0.002183447835449196 0.0001926595722333959
0.01583811138841734 -0.002677748104075581 0.0003517375020870547
0.01726837467588297 -0.003259443283937384 0.0005495242780555393
0.01887695515696482 -0.003940616607444267 0.0007939657413125743
0.0206834417098185 -0.004734147604074133 0.001094668097395531
0.02270845268563843 -0.005653454108989387 0.001463153898569876
0.02497316093896506 -0.006712094113552178 0.001913518550597023
0.02749843267489854 -0.00792321540586635 0.002462712945954473
0.03030355906741185 -0.009298820838546176 0.003130757183756459
0.03340436128907699 -0.01084884785447289 0.003941217276329505
0.03681057630401116 -0.01258009049262265 0.004921313130801658
0.04052242176150418 -0.01449502399364485 0.006102333341214444
0.04452618652418425 -0.016590622811797 0.007519352149001612
0.04878914109325148 -0.01885737443630653 0.009209780575486879
0.05325411329101262 -0.02127866848888569 0.01121200168901802
0.05783434654363576 -0.02383075383045707 0.01356290075126999
0.0624102253861154 -0.026483329381034 0.01629375961689335
0.06682974724961342 -0.02920050818181827 0.0194259229942129
0.07091493770188113 -0.03194135059690102 0.02296614743826981
0.07447723357043864 -0.0346581875969957 0.0269019540222602
0.07734548969810488 -0.03728959680252085 0.03119912235558301
0.07941344642281001 -0.03974281721317173 0.03580270631257804
0.08072531456626864 -0.04185694327772893 0.0406440948571798
0.0816544251260003 -0.04333188964605575 0.04566033604585733
0.0833490488472224 -0.04359770362806033 0.05084972174851799
0.08904682559690472 -0.04159524752981186 0.05647864753928272
0.1086873658767794 -0.03555165803641053 0.06412512682599052
0.1799636348633703 -0.02369372228576973 0.08479277261180898
0.5411335028895189 -0.01046835242920672 0.2577014261972986
0.8195884957380131 -0.06864499556791566 -0.2447792946239998
0.3203639733333742 -0.08663562820911612 -0.02309070657099141
0.1825013755320996 -0.08662029800650115 0.00452310759180462
0.1185967672926146 -0.07985420518008189 0.01167769340463534
0.08213066855630592 -0.07108251410236473 0.01393116290191765
0.05898361969966485 -0.06228625705192976 0.01435315250599961
0.04332901206080913 -0.05419451646248308 0.01392860863269788
0.03231542387833496 -0.04701551787448102 0.01307583367510589
0.02438026348961349 -0.04075258226870517 0.01200852538634335
0.01858917117085402 -0.03533327093363919 0.0108496091925411
0.01434262722050249 -0.03066175072934184 0.0096744999216544
0.01123381247676581 -0.02664021940097309 0.008530467800931495
0.008974627589411546 -0.0231775972914825 0.00744669352343624
0.007354599296948618 -0.02019271910878309 0.006440280910147493
0.006216580716619785 -0.0176150261489282 0.005519951481467973
0.005441493877518709 -0.01538410042410973 0.00468878653732423
0.004938186765293224 -0.01344870649405131 0.00394612773970745
0.004636459765184461 -0.01176564971698717 0.003288578408361301
0.004482132810640347 -0.01029863020223297 0.002711084941778299
0.004433361886993614 -0.009017177845811186 0.002207896724868613
0.004457901576320041 -0.007895697472481584 0.001772682172728714
0.004531088235014359 -0.006912650537749043 0.001398846962424288
0.004634199986005543 -0.006049850812649056 0.001079947520958265
0.004753170791149269 -0.005291877057475857 0.0008096560527343845
0.00487760509350492 -0.004625586856839252 0.0005820518732306338
0.004999986699244685 -0.004039718031612359 0.0003917131507245364
0.005115102601154204 -0.003524563152928334 0.0002337479913822086
0.005219561114658749 -0.003071708705092814 0.0001039236837773191
0.005311359541173941 -0.002673816037961674 -1.570565730725678e-06
0.005389573934628936 -0.00232444858708512 -8.629226787933721e-05
0.005454073677868081 -0.002017934015680192 -0.0001533347547170842
0.005505298950001513 -0.001749255892983502 -0.0002055106008500999
0.005544143924061297 -0.001513967355950568 -0.0002452761923202025
0.0055718116412654 -0.00130812090056635 -0.0002747504644194402
0.005589706383762703 -0.00112820678884461 -0.0002960076140111739
0.005599331479387695 -0.0009711040263371189 -0.0003108177840844227
0.005602207682790418 -0.0008340388758158971 -0.0003207618347380262
0.005599868814014982 -0.0007145532413806362 -0.0003271427043653314
0.005593833857325906 -0.0006104739546437961 -0.0003309354239317114
0.005585592758391959 -0.000519885189135395 -0.0003330054636759533
0.00557657431466782 -0.0004411033071824254 -0.000334031323077752
0.005568116198279449 -0.0003726531317198762 -0.000334515522862126
0.005561508753780972 -0.0003132523897619603 -0.0003347488623705229
0.005558020828970981 -0.0002617954967678505 -0.00033486563507319
0.005558883503038898 -0.0002173356775157332 -0.0003349800343872173
0.005565288070678002 -0.0001790741626114382 -0.0003351630433837557
0.005578410904292503 -0.0001463505219060571 -0.0003353765071473449
0.005599449162244676 -0.0001186373194607831 -0.0003355717805843772
0.005629633471251388 -9.553582592053802e-05 -0.0003357008466360962
0.00567022715433474 -7.67736779606962e-05 -0.0003357196673789998
0.005722558292425494 -6.22056309339826e-05 -0.0003356266044974712
0.005788040057932366 -5.181569734383712e-05 -0.0003353888612284564
0.005868186954358139 -4.572225900324367e-05 -0.0003350225003002277
0.005964650150561327 -4.418251098344947e-05 -0.0003345461826064541
0.006079233444706816 -4.760153831770195e-05 -0.0003339894773005197
0.006213919442672939 -5.654338559733328e-05 -0.0003334414567982815
0.006370901432191734 -7.174351212930402e-05 -0.0003328939552549266
0.00655263117164274 -9.413004424345271e-05 -0.000332288743715964
0.006761874648985234 -0.0001248456098712013 -0.0003315676907194768
0.007001724371512306 -0.0001652733448566436 -0.0003305937105379229
0.007275646319882898 -0.0002170714853082331 -0.0003291156342281313
0.007587570249724115 -0.0002822108856227183 -0.0003266241423063471
0.007941947162436545 -0.0003630197781132719 -0.0003224328884886756
0.008343811220710044 -0.000462230344771536 -0.000315782902689358
0.008798833764765675 -0.000583032058603834 -0.0003055613371265267
0.009313410092417436 -0.000729128728684031 -0.0002903771356636904
0.00989478867850432 -0.0009047990751501855 -0.0002684632143637529
0.01055115013303273 -0.001114958430895646 -0.0002376511153072661
0.01129172507083749 -0.001365216365955352 -0.0001956173581111548
0.01212688755486372 -0.001661928673844324 -0.0001395203101671898
0.0130682425947451 -0.002012239338239781 -6.604350982412079e-05
0.01412879376924982 -0.002424098213409445 2.877231709245327e-05
0.01532303582034841 -0.002906251169314009 0.0001497438769926199
0.01666704042524382 -0.003468183473273068 0.0003024149784685129
0.01817849952758248 -0.004119997318717381 0.0004935767086515825
0.01987663078696238 -0.004872204912946896 0.0007315703232951077
0.02178205001965992 -0.005735412416515601 0.001026563926115674
0.02391644718319871 -0.006719854043523272 0.001391268740782974
0.02630189913229593 -0.007834771278962843 0.001841271244923381
0.02895979282257732 -0.009087590795822895 0.002395325134695804
0.03190910972268737 -0.01048290107096494 0.003075966731507008
0.03516394686630141 -0.01202124927095894 0.003909755219872539
0.03873013765432862 -0.01369780945536455 0.004927832974840179
0.04260074943079263 -0.01550100907984962 0.0061658509267273
0.04675068619463059 -0.01741132414281445 0.007662686948390284
0.05113071899164916 -0.01940045536510032 0.009459136962609197
0.05566159491307739 -0.0214311568736689 0.01159534904353001
0.06022998512130154 -0.02345791764991803 0.0141063824173504
0.06468855297484823 -0.02542845351030758 0.01701725403032927
0.06886303115084592 -0.0272855389966032 0.02033733222145515
0.0725703773674604 -0.02896788862646196 0.02405449788326319
0.0756530350721511 -0.03040778683138294 0.02813154661503222
0.07803784512234636 -0.03152202999222162 0.03250659160997761
0.07984040115779432 -0.03219188693483924 0.03710055527400506
0.081571592334125 -0.03222837580490805 0.04183920147178027
0.08461522855398107 -0.03132632119016252 0.04671619520059593
0.0925279142298971 -0.0290435485729843 0.0520173976122156
0.1153227812320593 -0.0249642452060993 0.05938864946631275
0.1888271695368718 -0.01956890632283927 0.07978444034305679
0.5405582431045829 -0.01744520363409363 0.24871376774192
0.781856182313091 -0.05069508249030116 -0.2412449285231048
0.3111156858114532 -0.07209172901682549 -0.02847087469647243
0.1842319834743466 -0.07668716964727273 -0.001098790275128571
0.1249454263658869 -0.07390799077278287 0.007023669008065804
0.08999147196247102 -0.06788413199450365 0.01037405297592331
0.06690970779678512 -0.06077578643969497 0.01174165000825475
0.05070746474187016 -0.0536591692945547 0.012058196044881
0.03892968879300469 -0.04702187424541663 0.01176125045344991
0.03019490465650032 -0.04104875863055527 0.01110122306265375
0.02364776593334514 -0.03577598854238994 0.01023658197139922
0.01871965875261162 -0.03117054513016016 0.009272051802983483
0.01501195921503974 -0.02717046867743361 0.00827758422506571
0.01223417742642583 -0.02370500103641052 0.007299373294598571
0.01016881991939409 -0.02070442576966806 0.006367066136592333
0.008650079481907602 -0.01810457261508289 0.005498534920660029
0.007550075406794681 -0.01584853822551176 0.004703462513351262
0.006769435359408969 -0.01388698322337297 0.003985908468004693
0.006230630277399867 -0.01217771018203672 0.003345820180944745
0.005873126528977498 -0.01068492919259037 0.00278047277012422
0.005649674344715477 -0.009378424812516483 0.002285718388556065
0.005523486327809815 -0.008232729777733018 0.001856331004199485
0.005466116876747007 -0.007226376421131094 0.001486468252510303
0.005455714744440284 -0.00634122361714415 0.001170196341369645
0.005475631320388907 -0.005561884317573392 0.0009015290150776208
0.005513342953015822 -0.004875246996496167 0.0006747588137445865
0.005559578119481438 -0.004270076460096778 0.0004846170979967265
0.005607669674346544 -0.003736686145532994 0.0003263320430495733
0.005653020105654275 -0.003266678988128767 0.0001957590636737817
0.005692623058903363 -0.002852727806040092 8.916354347704261e-05
0.005724711065630749 -0.002488401119105955 3.044834998988253e-06
0.005748438101157459 -0.002168024594944945 -6.565899350716502e-05
0.005763628595946809 -0.001886571078173394 -0.0001197325689355797
0.005770640044368136 -0.001639573767157873 -0.0001616086442387021
0.005770207267911002 -0.001423058892462217 -0.0001933856901153523
0.00576332240553159 -0.001233484556486948 -0.000217113897252943
0.005751122303783327 -0.001067692383075819 -0.0002345535299064465
0.005734798478620805 -0.0009228667111638127 -0.0002472728588057018
0.005715585208610806 -0.000796504559585454 -0.0002565547595893866
0.005694730516477143 -0.0006863870807276047 -0.0002633461530660504
0.00567348008295156 -0.0005905544729957836 -0.0002684713320554089
0.005653042515942635 -0.0005072820860796193 -0.0002725780151659082
0.005634554521030091 -0.0004350567140890331 -0.0002761397389327084
0.005619120499545192 -0.0003725615250166861 -0.0002794167510108972
0.005607840113405924 -0.0003186613244597272 -0.0002825131598762641
0.005601790126721718 -0.0002723851779123861 -0.0002855176850927173
0.005602018247565644 -0.0002329147757643873 -0.0002884932585206888
0.005609564270507054 -0.0001995742401574019 -0.0002913963403823181
0.005625493378899805 -0.0001718246719534617 -0.0002941789259372926
0.005650908114090544 -0.00014926055990267 -0.0002968018562810144
0.005686943919549082 -0.000131607848889486 -0.0002992340903691323
0.005734799342061036 -0.0001187246735338785 -0.0003014959709351888
0.005795755015406382 -0.0001106042364759395 -0.0003035768672001282
0.00587118779436892 -0.0001073796854030259 -0.0003055201471165353
0.005962604838293357 -0.0001093284342453202 -0.0003073730304571595
0.006071656780921752 -0.0001168808469358183 -0.0003091941821944276
0.006200161887976323 -0.0001306301665884353 -0.0003111134269152184
0.006350132864340291 -0.0001513447869864046 -0.0003131679227808524
0.006523820179852252 -0.0001799887894188555 -0.0003153572432783363
0.00672376535185006 -0.0002177435801524827 -0.0003176933331672911
0.006952807284347932 -0.0002660339718194382 -0.0003201308466263086
0.007214124134223285 -0.0003265615987436142 -0.0003225423205911162
0.0075113179274071 -0.0004013417934884982 -0.0003245562571301315