# OOMMF: rectangular mesh v1.0
# Segment count: 1
# Begin: Segment
# Begin: Header
# Title: 
# Desc: time = 1.6232294181481824e-10
# Desc: stepsize = 4.4824948236172704e-13
# Desc: step = 340
# meshunit: m
# valueunit: (none)
# valuemultiplier: 218566.9534331106
# xmin: 0
# ymin: 0
# zmin: 0
# xmax: 4e-07
# ymax: 1e-07
# zmax: 4e-09
# ValueRangeMaxMag: 0.9999999999999999
# ValueRangeMinMag: 0.003881196851724331
# meshtype: rectangular
# xbase: 2e-09
# ybase: 2e-09
# zbase: 1e-09
# xstepsize: 4e-09
# ystepsize: 4e-09
# zstepsize: 2e-09
# xnodes: 100
# ynodes: 25
# znodes: 2
# End: Header
# Begin: Data Text
0.8317898956468811 -0.5368720068075515 -0.1410452864777642
0.2493148093103878 -0.3666354956604133 0.06766783535728084
0.1170345713715196 -0.2946171278517845 0.08229461009503869
0.06283481718046556 -0.2489129496538716 0.07898447562634275
0.0348210160662633 -0.2134823509225395 0.07219182993527211
0.01866305834666001 -0.1838664573829215 0.06467043877809298
0.008834966603474947 -0.1584356490607903 0.0572582913412468
0.002739625937746492 -0.1363932771082146 0.05026975096133592
-0.001011847485910596 -0.1172301996646726 0.0438273447913923
-0.003231502971653068 -0.1005580503224092 0.03796929315098967
-0.004425323449763337 -0.08605409246988326 0.03269238706060182
-0.004923524268517972 -0.07344109371266136 0.02797217797312402
-0.004949085036513257 -0.06247845034006565 0.02377385506788064
-0.004656442755631141 -0.0529568609362937 0.02005819323705378
-0.004154595409913443 -0.04469420198251522 0.01678453718318933
-0.003521463275152139 -0.03753197407936699 0.01391255604879683
-0.00281317869991678 -0.0313321577797999 0.0114035973863315
-0.00207033204947128 -0.02597442832886408 0.009221260828775219
-0.001322226636253954 -0.02135374107052034 0.007331446885761927
-0.0005898237108109413 -0.01737822479777641 0.005702581429890177
0.000112123586640326 -0.01396730927659028 0.004305933067283017
0.0007735456889499086 -0.01105014984485377 0.003115247473378531
0.001387995970668836 -0.008564337769778716 0.002106435262449732
0.001951806326371665 -0.006454794212361945 0.001257662726256875
0.0024634071083967 -0.004672832928536426 0.0005491363283456582
0.002922841457932042 -0.003175451281744867 -3.723689478156823e-05
0.003331367811809717 -0.00192468775328139 -0.0005177200012007301
0.003691083223079229 -0.0008870166422842246 -0.000906696668499486
0.004004687076546667 -3.287385067376932e-05 -0.00121710964332765
0.004275327056452958 0.0006637865797411904 -0.001460369041801386
0.004506406433808864 0.001225928893730099 -0.001646376491337787
0.004701485795141307 0.001673777860082658 -0.001783996574479274
0.004864228295202669 0.002025074643283155 -0.001881096402377699
0.004998284453038763 0.002295357728996043 -0.001944514684737814
0.005107223720583125 0.002498175745166416 -0.00198034227344946
0.005194508595098063 0.002645243127215378 -0.00199398663122702
0.0052634193254397 0.002746677355224107 -0.00198993941381413
0.005317017876817709 0.002811160630345187 -0.001972098004301326
0.005358176281689696 0.002846097827487777 -0.001943785238806844
0.005389545294521565 0.002857815505648803 -0.001907552782615203
0.005413572445235146 0.002851691212615302 -0.001865650195563749
0.005432560499750495 0.002832277480802772 -0.001819903077032114
0.005448645946710209 0.002803422716306582 -0.001771735172776603
0.005463846783573714 0.002768346777913217 -0.00172253285596475
0.005480095657135623 0.00272969591696125 -0.001673400636147363
0.00549922072250146 0.002689609074760365 -0.001625314930626315
0.005523002513251231 0.00264975467852165 -0.001579201364027672
0.005553176377061328 0.002611354954230728 -0.00153571420127683
0.005591447369415596 0.002575240733939919 -0.001495406682621031
0.005639548675280055 0.002541858547274557 -0.001458606797981012
0.00569924594952229 0.002511279726453995 -0.001425346549194126
0.00577239559627027 0.002483223766734747 -0.001395477287208264
0.005860991379739811 0.002457015485616938 -0.001368487583879377
0.005967188847261219 0.002431568253173957 -0.001343620386547676
0.006093381292344913 0.002405350887540612 -0.001319868255597228
0.006242223471752547 0.002376304398149641 -0.001295863302324885
0.006416679497376904 0.002341801834512258 -0.001270109787211931
0.006620095391954058 0.002298568076086955 -0.001240796991714775
0.006856215483154971 0.002242575632603046 -0.001205838773926542
0.007129273203425706 0.002168965647637832 -0.001163007444065022
0.007444066951737285 0.002071906845999393 -0.001109546952605967
0.007806012705312253 0.001944417268484302 -0.001042322325385945
0.008221297042395565 0.001778176170454275 -0.0009576538277131654
0.008696968025817106 0.001563251678486966 -0.0008508496722893882
0.009241044453062435 0.001287763670465456 -0.0007163996617776218
0.009862697420348685 0.0009375513207793083 -0.0005475788594696843
0.01057233846860039 0.0004957447077199568 -0.0003361080893014251
0.01138174066320831 -5.771325146984719e-05 -7.234044538927786e-05
0.01230419680006726 -0.0007465001952227837 0.0002551761034463167
0.01335459105541872 -0.001598468452568965 0.0006600303259770788
0.0145494890665459 -0.002646241166586275 0.001157958333538387
0.01590726833937049 -0.003927777735106097 0.001767398507828022
0.01744814022792614 -0.005487096712132002 0.002510202306398756
0.01919411269132261 -0.007375028481534146 0.003411856545465431
0.02116892851815996 -0.009649907218281278 0.004502167196579891
0.0233977470018539 -0.01237828052466237 0.005816167874273083
0.02590656362855442 -0.01563551325867902 0.007394250678911213
0.02872140171420724 -0.01950608096774153 0.009282662467556312
0.03186702443864097 -0.02408358163014954 0.01153421104216905
0.03536508929682852 -0.02947038084482441 0.01420830371311887
0.0392317963127433 -0.0357766588031113 0.0173708804979371
0.04347481913566609 -0.04311883441749244 0.02109453140349855
0.04808940291377197 -0.05161732617512799 0.0254577655115331
0.05305383122530339 -0.06139346757670673 0.03054315423215753
0.05832442398174384 -0.07256554794870083 0.0364350270558971
0.06383034771347509 -0.08524418428568198 0.04321609823432039
0.06946908234864151 -0.09952711568935783 0.05096262926365032
0.0751036830058469 -0.1154935280571774 0.05973884411285551
0.08056272118547997 -0.1331981623761753 0.06959125398128932
0.08564362737688944 -0.1526649712038733 0.08054300741875357
0.09011995627431565 -0.1738789159368794 0.09258920433275487
0.09375206217087896 -0.1967728008513452 0.1056942120737243
0.09629962014005128 -0.2212025843543528 0.1197913815081547
0.0975358201461784 -0.246896242379247 0.134785315621278
0.09727152281655715 -0.2733397240479944 0.1505572361657675
0.0954314945032413 -0.2995001187467509 0.1669790798869988
0.09237682429984602 -0.3230597893967971 0.1839769886559182
0.09053977402322522 -0.3378112144726924 0.2019560023852026
0.105878912343129 -0.3213590135000666 0.226269259341399
0.33308579252539 -0.1328776270719353 0.358016655812727
0.8784380537011718 -0.1882203931800774 -0.2413308882352722
0.3095513165578498 -0.1715375455669771 -0.007184154400293645
0.1561230546614445 -0.1427112005152662 0.01802076398606784
0.09141440430559782 -0.1194455601673543 0.02215275807997177
0.05761761562515184 -0.1011506353167245 0.02201076375737771
0.03765702056172988 -0.0862792861297431 0.02062964978073134
0.02497877490251066 -0.07388271179067234 0.01884276213655701
0.01658398663766615 -0.06340121857298768 0.01694675246970678
0.01090940664363859 -0.05447145517602059 0.01507000255645787
0.007054614813949452 -0.04683139193971789 0.01327599594642668
0.004459941600056411 -0.04027731307364842 0.0115975993572341
0.002757053181187931 -0.034643857677478 0.01005082517725696
0.001693097709339011 -0.02979387205742484 0.008641810799832318
0.001089071426715938 -0.02561245669448121 0.007370619132629362
0.0008153727690675733 -0.02200290867851887 0.006233163618643739
0.00077667821055776 -0.01888363370960152 0.005222577373033184
0.0009021210821542051 -0.01618566202634874 0.004330548334409178
0.001138630258503626 -0.01385058206077613 0.003548022624886519
0.001446334175298872 -0.01182880947361286 0.002865479765451743
0.001795331685045909 -0.01007813441003718 0.002273436038469575
0.002163305170978654 -0.008562500667947705 0.001763015846048036
0.002533761818825724 -0.007250993290079788 0.001325795932670358
0.002894777196178552 -0.006116999877987753 0.0009537136340701035
0.003237989309458081 -0.005137524020683132 0.0006393536623485351
0.003557767051877215 -0.004292625950474851 0.0003758399260551942
0.00385061336022433 -0.003564969495154501 0.0001566107149936206
0.004114705648205519 -0.002939442910119197 -2.429670442288617e-05
0.004349450734000058 -0.002402839852252237 -0.0001720625793894265
0.004555188072689424 -0.001943590429844302 -0.00029142570894436
0.004733002688772373 -0.001551539147668312 -0.0003864848703721759
0.004884489846737309 -0.001217757044858269 -0.0004606486887186795
0.005011605903362744 -0.0009343854017372999 -0.0005170474911117044
0.0051165848313626 -0.0006945082423337422 -0.0005584846831210928
0.005201800579565334 -0.0004920473966336255 -0.0005873698791807077
0.005269668446155181 -0.0003216713259212746 -0.0006059629698109321
0.005322618786111654 -0.0001787180132424206 -0.0006163669127289236
0.005363018981136489 -5.91220051544273e-05 -0.0006202330066220753
0.005393120102823271 4.065551346222776e-05 -0.0006190281921626072
0.005415088836672622 0.0001236901849064245 -0.0006139868309073532
0.005430964615059335 0.0001926505450056996 -0.0006058661168522338
0.005442659299289716 0.0002498488313616794 -0.0005954003645801846
0.005452009867229805 0.0002972810440727535 -0.0005831313048015144
0.005460741580612202 0.0003366608114972216 -0.0005694156186337315
0.005470501487653806 0.0003694480790494193 -0.0005547876496432489
0.005482886510762454 0.0003968707901395466 -0.0005396728917787282
0.005499417701210495 0.0004199432476414375 -0.0005245496815013419
0.005521590407645631 0.0004394827290599213 -0.0005100075424597593
0.005550877077726598 0.0004561224491173273 -0.0004964887225934115
0.005588738195862484 0.0004703241780235755 -0.0004844666937662354
0.005636671388947196 0.0004823870467397267 -0.0004742813538539595
0.005696213516078283 0.0004924522177574681 -0.0004660605480496573
0.005768988772977401 0.000500504554603324 -0.0004598483550464339
0.005856742703331627 0.0005063662331797053 -0.0004553916088860928
0.005961363155865899 0.0005096853291635006 -0.0004522998290804148
0.006084944331761846 0.0005099193553214922 -0.0004500586627122651
0.006229803363528992 0.0005063123526552397 -0.0004479232383776566
0.006398526988872765 0.0004978697486556339 -0.0004452252055065295
0.006594033033186791 0.0004833281637537588 -0.0004411916929057448
0.006819580249147005 0.0004611211020030313 -0.0004350183668566484
0.007078850385496762 0.0004293408507744807 -0.0004260758219497869
0.007376001920615966 0.0003856891367623346 -0.0004135240740290548
0.007715702406577676 0.0003274200164284126 -0.0003965218699042081
0.008103256980921498 0.0002512667960361015 -0.0003741361893129446
0.008544662660530392 0.0001533511167677916 -0.0003449152173129082
0.009046692662469547 2.907829390431446e-05 -0.0003071899201939085
0.009617054262467506 -0.0001269849887846783 -0.0002588093242911783
0.01026444529412917 -0.0003212487511589913 -0.0001969188919799666
0.01099866689893533 -0.0005612419356168175 -0.0001183172750515607
0.01183076795664726 -0.0008557628279134116 -1.922178119899748e-05
0.01277308891760903 -0.001215033520594171 0.0001048949861424655
0.01383934821641361 -0.001650850584004031 0.0002591065249241671
0.0150447549363652 -0.002176730529271446 0.0004493455645762481
0.01640600710453401 -0.00280805494006336 0.0006829075356870177
0.01794127663976818 -0.003562186834562869 0.0009684084842809612
0.01967018893737147 -0.004458545677178434 0.001316182094543441
0.02161357465238617 -0.005518622458163998 0.001738926508091805
0.0237930400509751 -0.006765887980138495 0.002251566572119246
0.02623036538558229 -0.008225552857220422 0.002871531318867052
0.02894645483807246 -0.009924163753559454 0.003619355636417652
0.03195979423251336 -0.0118889941008668 0.004518758910050221
0.03528444826106625 -0.01414721619643229 0.005596790040919332
0.03892733492397373 -0.01672487595608867 0.006884420280269579
0.04288466230189285 -0.01964571703630851 0.008416560629498715
0.04713770629369285 -0.02292991852038075 0.01023123547609678
0.05164799231046147 -0.02659289267215664 0.01236864813176351
0.0563521321461534 -0.03064429648234474 0.01486947998108342
0.06115723439118718 -0.03508738417489806 0.01777193069926324
0.06593812512859744 -0.03991869624670021 0.02110809142571915
0.07053759939452645 -0.04512777228232701 0.02490010893433841
0.07477124240630881 -0.05069598723481385 0.02915602492403999
0.07843869581372548 -0.05659251258843173 0.03386617436860871
0.081343164208923 -0.06276374117466656 0.03900133094074879
0.0833224130550812 -0.06910944510063562 0.04451358143109398
0.08430262126866477 -0.07543240714607177 0.05034165058248913
0.08441434524222789 -0.08133226413101882 0.05642532973012698
0.08430723923813926 -0.08597110255751943 0.06274734605819893
0.08619069865047657 -0.08751292641337817 0.06949522938657413
0.09804922827274012 -0.08168749102261437 0.0779472770147778
0.1560926467752781 -0.05856609967873603 0.0981748148271069
0.5170004731326232 -0.007073609300397467 0.2709387609390677
0.854448132988486 -0.1031577559585679 -0.2474896519933877
0.3232782079488583 -0.112730200953632 -0.0177996211475697
0.1747987141087992 -0.1036895690376308 0.009457548346209306
0.1081172765968864 -0.09071995355642114 0.01539985221461782
0.07172214284149984 -0.07828046615965428 0.01657434515075403
0.04953386109642324 -0.0673394838362132 0.01618218649718939
0.03503157259707301 -0.05792889560713616 0.01517127737227861
0.02513169136443793 -0.04987856729052031 0.01390222172514731
0.01820022122557973 -0.04299769765673299 0.01254091051017642
0.0132874429189563 -0.03711343569033818 0.0111752609963155
0.009798315743454494 -0.03207611916011147 0.009855575851039444
0.007337386850684658 -0.02775769407766759 0.008611024070621524
0.005629901585455871 -0.02404917371099577 0.007457953715781333
0.004478663577069907 -0.02085819017477005 0.006404464481447782
0.003738795022184565 -0.01810675294795192 0.005452847634322027
0.003302117573538869 -0.01572920494892316 0.004601314360025079
0.003086966247330947 -0.01367038891487087 0.003845606838700335
0.003031229517729223 -0.01188400815380562 0.003179948041594762
0.003087491313418664 -0.01033119173333593 0.002597513020510866
0.003219568886881319 -0.00897926019534819 0.002091048952166817
0.003399924469022895 -0.007800670278556818 0.001653530404068046
0.003607729535603322 -0.006772135665219009 0.001278105702968893
0.003827451606577526 -0.005873890507084901 0.0009580817900146255
0.004047716611042093 -0.005089082612853723 0.0006872405316790824
0.004260367661522957 -0.004403273841543542 0.0004597518991092176
0.004459778100444557 -0.00380403664092201 0.0002699754403595397
0.004642324385006065 -0.003280625838383548 0.0001127583787851313
0.004805887694333715 -0.002823708537524702 -1.63547516349744e-05
0.004949507017823779 -0.002425136765108471 -0.0001214348442217577
0.005073150802979438 -0.002077769274015112 -0.0002059820932689222
0.005177451823688193 -0.001775328093591033 -0.0002728727495365618
0.005263529255297604 -0.001512279252328327 -0.0003247434490802085
0.0053328804322779 -0.001283736387509618 -0.0003639518112582817
0.005387228838329087 -0.001085383244546897 -0.0003925254406007649
0.005428412679511966 -0.0009134041250258122 -0.000412384786063063
0.005458347350445736 -0.0007644290912458444 -0.0004253318099477207
0.005478943903312254 -0.0006354868994700448 -0.0004327672245823643
0.005492050912093962 -0.0005239586321270341 -0.0004359322388809426
0.005499478495878154 -0.0004275382319589189 -0.0004358577288000806
0.005502951888981832 -0.0003442010339487715 -0.0004331319614973793
0.005504104751837324 -0.0002721714693651577 -0.0004283321489359142
0.005504523753121526 -0.0002098998163805918 -0.0004218635354496218
0.00550570929411374 -0.0001560427561445184 -0.0004139792006595993
0.005509103906300119 -0.0001094433486872033 -0.000405125383479758
0.005516115385478837 -6.911728276845197e-05 -0.0003956683762276612
0.005528090832430105 -3.424052695430568e-05 -0.0003860597468653775
0.005546363316890917 -4.137213587843006e-06 -0.0003768771442925488
0.005572252368568436 2.172757219447934e-05 -0.000368574011549082
0.005607074533981043 4.375541183283909e-05 -0.0003616491208164512
0.00565218772391908 6.22188106048658e-05 -0.0003564665775390504
0.005708990646223297 7.726247160696428e-05 -0.000353188702947717
0.005778968050875581 8.890354515881981e-05 -0.0003518955618858646
0.005863718211324104 9.702613309830145e-05 -0.0003523675305752566
0.005964971003147182 0.0001013742879008123 -0.0003542628322211349
0.006084648179976921 0.0001015426553095021 -0.0003571258038466894
0.006224874515652784 9.696052360600425e-05 -0.000360286744315227
0.006388022289062452 8.687487471286312e-05 -0.0003631871255828171
0.00657676917649273 7.03297046258794e-05 -0.000365196429696023
0.006794103072023375 4.613963942768134e-05 -0.0003656912195469195
0.007043399004678723 1.286251358323015e-05 -0.0003642741302697289
0.007328466568130292 -3.123590317281045e-05 -0.0003603891774837992
0.007653572426743338 -8.822172533391051e-05 -0.000353524428762558
0.008023556438198397 -0.0001605409252013515 -0.0003431384340065066
0.008443876693139337 -0.0002510769006262575 -0.0003282452968280889
0.008920680927749062 -0.0003632138040690852 -0.0003077047212631503
0.009460951949152203 -0.0005009110570903968 -0.0002799988194715215
0.01007256140520403 -0.0006687847191595683 -0.0002430345142760043
0.0107643773264127 -0.0008721873238413205 -0.0001944907779502193
0.01154640608861716 -0.001117293677676535 -0.0001316408827367273
0.01242984530017086 -0.001411179001926854 -5.121543852173614e-05
0.01342717866565356 -0.001761884051395765 5.040944529331926e-05
0.01455229974683465 -0.002178465528686113 0.0001774813742849363
0.01582053876957955 -0.002671024859223359 0.0003353383004716928
0.01724869067434427 -0.003250690072814217 0.0005303761974457194
0.01885505092823889 -0.003929545018763417 0.0007704255017402056
0.02065925816257403 -0.004720485013687312 0.001065349134011039
0.02268199146904279 -0.005636958302690017 0.001426932309033013
0.02494451657231223 -0.00669256811880208 0.001869197114634973
0.02746781201898295 -0.007900524320131599 0.002409013453733286
0.03027122440397607 -0.009272903407079232 0.00306626767056631
0.03337064792918841 -0.01081972018075969 0.003864161596016651
0.03677593664315353 -0.01254784617536083 0.004829947498825652
0.04048740778744945 -0.01445983458686395 0.005995106925841
0.04449155807773124 -0.01655273814586194 0.007394755350911376
0.04875599954397631 -0.01881712053587387 0.009066899754494576
0.0532238677164457 -0.02123644087904027 0.01105080940577518
0.0578086986853924 -0.02378699601483482 0.01338401152655677
0.06239121066427705 -0.02643848504542244 0.01609844660556854
0.06681965872600017 -0.02915495610304434 0.0192161362434132
0.07091611330409607 -0.0318953380630976 0.02274426205816822
0.07449178709671939 -0.03461176955698972 0.02667073219200536
0.07737514475423345 -0.03724259592891345 0.0309617129717235
0.07945948850820546 -0.03969481925370268 0.03556254845748708
0.08078847352295983 -0.0418073195742921 0.04040457458016414
0.08173499620843408 -0.0432798196001281 0.04542434058784184
0.08344780554003271 -0.0435421492513553 0.0506194549439699
0.08916697042260111 -0.04153482255064664 0.05625569157032674
0.108839235938826 -0.03548439271290592 0.06391165574727656
0.1801812768274716 -0.02361689769059994 0.0846010104460501
0.5415835422108778 -0.01037734568370697 0.2576558937292578
0.8204437856752438 -0.0685998186909806 -0.2454774477504554
0.3206348313042656 -0.08653085285980529 -0.02362684795627481
0.1825983203705775 -0.08648283239207896 0.004047927535554613
0.1186221352215931 -0.07970310155438654 0.01125051280546768
0.08212639412249502 -0.0709311070712676 0.01354594328181883
0.05896916186970721 -0.06214255272590481 0.01400574495632354
0.04331354449500145 -0.05406258754643101 0.01361576624104625
0.0323030311467811 -0.04689690550981199 0.01279469410410431
0.02437245557425015 -0.04064734414841767 0.01175642101373222
0.01858620259191356 -0.03524067475487543 0.01062421199038308
0.01434414634362693 -0.03058070157052126 0.009473730171347037
0.01123918266927456 -0.02656951156038789 0.00835229216873584
0.008983135292561006 -0.02311605072963716 0.007289254021643437
0.007365587088853151 -0.02013924088547388 0.006302050577933526
0.006229479921861408 -0.01756863183282134 0.005399674332845997
0.005455819707212212 -0.01534391739022215 0.004585127862255195
0.004953561583731647 -0.01341397014259266 0.00385755126263375
0.00465259384858954 -0.01173569618216374 0.003213571462159418
0.004498756592389427 -0.0102728862378288 0.002648066028380669
0.00445022875030902 -0.008995149401603736 0.002154968242314496
0.004474788951258747 -0.007876956586277906 0.001728065191795077
0.004547733448020895 -0.006896821030293472 0.00136108555270079
0.004650326242161469 -0.006036598900699605 0.00104775911188067
0.004768547645236971 -0.005280905722977819 0.0007821557184796783
0.004892056715679481 -0.004616627051005697 0.0005586479986150535
0.005013415526393197 -0.004032518851077398 0.0003717652820192241
0.005127490526874396 -0.003518884964213483 0.0002164850727352454
0.005230902898427946 -0.003067320406865739 8.844176622360297e-05
0.005321634088258934 -0.002670494414685386 -1.634883973506279e-05
0.005398755098271991 -0.00232198202706845 -0.0001013026591929073
0.005462132847006495 -0.002016129531637701 -0.0001692148852828481
0.005512226455693003 -0.001747942530562571 -0.0002226290455846579
0.005549956747752923 -0.001512997839335622 -0.0002638201228202224
0.005576543583820474 -0.001307374809990371 -0.0002947582203670422
0.005593383346936669 -0.001127590641158716 -0.0003172991872007445
0.005601997410631324 -0.0009705494032265034 -0.0003331751650939459
0.005603946328111105 -0.0008335020125757233 -0.000343739380184967
0.005600767610033064 -0.0007140077219050149 -0.0003501820208375556
0.00559399086049271 -0.0006099034659273699 -0.0003534802876824348
0.005585090303716644 -0.0005192812678830617 -0.0003541843571399335
0.005575474638317255 -0.0004404608557649774 -0.0003528202987866431
0.005566524292138492 -0.0003719699345695203 -0.000349744731469076
0.005559552772935595 -0.000312527673911716 -0.0003451832036417695
0.005555831842493766 -0.0002610260276853309 -0.0003395552471896664
0.005556609949983011 -0.0002165175565503489 -0.0003332194421267771
0.005563087321754446 -0.0001782048675905195 -0.0003266425233111541
0.005576458788709078 -0.0001454295892699619 -0.0003204191031494103
0.005597911165174376 -0.0001176672099057268 -0.0003150320612257431
0.005628633799905186 -9.45221153701103e-05 -0.0003110153064915605
0.005669858846582125 -7.572505407154287e-05 -0.0003087588960605812
0.005722858853937065 -6.113378501529417e-05 -0.0003084516537922099
0.005788990545986022 -5.073439917309299e-05 -0.0003101931191917093
0.005869718241927542 -4.464624324311469e-05 -0.0003137752938068438
0.005966630809692868 -4.31269389901618e-05 -0.0003188719472028787
0.006081498584654547 -4.657973910732528e-05 -0.0003250428076517266
0.006216280200375778 -5.55671018044717e-05 -0.0003316435645802024
0.006373165255953444 -7.082350703986688e-05 -0.0003381597265400786
0.006554627387166888 -9.327346250938353e-05 -0.0003440244505246406
0.006763424972883498 -0.0001240568752011191 -0.0003487039854183657
0.007002674039590141 -0.0001645534587059988 -0.0003519157396288068
0.007275890426704572 -0.000216416046124239 -0.0003532485193755081
0.007587007072438972 -0.0002816080480914696 -0.0003523550057131707
0.007940482312784719 -0.0003624440395360024 -0.0003488824301748249
0.008341340387602534 -0.0004616382271262731 -0.0003420741531331646
0.008795235763411837 -0.0005823564125666779 -0.0003310400729045186
0.009308590483163999 -0.0007282739079428099 -0.0003145633150883733
0.009888649227733373 -0.000903638469126258 -0.0002909241283219873
0.01054358444961601 -0.001113331619860557 -0.0002582227685927478
0.0112826395951266 -0.001362933409859731 -0.000214242816270702
0.01211619673154272 -0.001658776671984427 -0.0001563282660992873
0.01305588579493508 -0.002007987603863738 -8.154657055088575e-05
0.01411472966223636 -0.002418506606430483 1.355398907513993e-05
0.01530721191880071 -0.002899078570995765 0.0001333895195720192
0.01664935797291411 -0.003459191922423839 0.0002833336967995942
0.01815883662814922 -0.004108959068310743 0.0004700923012084546
0.01985490195292779 -0.004858914294900402 0.0007022674182800264
0.02175821975107468 -0.005719694319490458 0.00099029651795063
0.02389055953357486 -0.00670157426124786 0.001346823801116494
0.02627409678597574 -0.007813850837494894 0.001787332214492661
0.02893026463628592 -0.009064018308337571 0.002330411125310141
0.0318781118442458 -0.01045674273714607 0.002998210138663443
0.03513184918799314 -0.01199265689848 0.003817305355120839
0.0386974092209904 -0.0136670242549082 0.004819021110500781
0.04256807072726384 -0.01546836025854361 0.006039049070158411
0.04671908744340494 -0.01737722451046385 0.007516874226076886
0.05110155526854588 -0.01936539173329086 0.009294182778401111
0.05563655346426376 -0.02139566190709406 0.01141176568410211
0.06021115010764935 -0.02342251575551144 0.01390537839665523
0.06467833732423268 -0.02539359232086249 0.01680077655950598
0.06886396435854555 -0.02725151265634286 0.0201078066609181
0.07258482766311218 -0.02893475506491711 0.02381479074701037
0.07568300926722508 -0.03037530432800544 0.02788495376706859
0.07808489598950352 -0.0314896381902098 0.03225671933720954
0.07990548105516451 -0.03215872807390856 0.03685098969490249
0.08165517887383543 -0.03219333635423295 0.04159305014020246
0.0847182909405115 -0.03128806391087551 0.04647584106809578
0.09265394608165858 -0.02900050106427261 0.05178456818603194
0.1154825615496446 -0.02491453297009211 0.05916576931018141
0.1890555928415329 -0.01951009230813462 0.0795846327678648
0.5410290979767655 -0.01737173769716344 0.2486685008997018
0.7827758554726314 -0.05066714493008138 -0.2419331680732106
0.3114263516346932 -0.07202262684630403 -0.02898552244792967
0.1843534891820092 -0.07658859297338255 -0.001555011347074446
0.1249816197103889 -0.07379109669284238 0.006610707081515612
0.08998766758461206 -0.06775952550069847 0.009997902466681866
0.06688908236085227 -0.06065165426522852 0.01139861974691186
0.05068218882516237 -0.05354088166306577 0.01174590782224485
0.03890592094217626 -0.04691244251887932 0.01147780728104267
0.03017545164952065 -0.04094951032780933 0.01084483977063033
0.02363362116805273 -0.03568716897762787 0.01000566257059899
0.01871084163733766 -0.03109176791055309 0.009065098116563034
0.01500797720747019 -0.02710102164004185 0.008093013396780162
0.01223433289539752 -0.02364403661525434 0.007135665875002064
0.01017240515073583 -0.02065107145470265 0.006222929449871909
0.008656445863837544 -0.01805799168749257 0.005372852666172364
0.00755864895414594 -0.01580795883982326 0.004594974161483214
0.006779748252497123 -0.01385171036230966 0.003893100661199189
0.006242306758298016 -0.01214712708093655 0.003267158204087739
0.005885818779761577 -0.01065849245468744 0.002714336185358134
0.005663066157021064 -0.009355658616518291 0.002230161584728623
0.005537297818335831 -0.008213217353632054 0.001809508493382393
0.005480040411112431 -0.007209747355705979 0.001446869186080764
0.005469433697151142 -0.006327147097721447 0.00113650369099892
0.005488879860223101 -0.005550068280470424 0.0008728155670314621
0.005525919400229475 -0.004865432537366043 0.0006503933925118931
0.005571368634011538 -0.004262027964931889 0.0004639383098914706
0.005618646080590777 -0.003730181190522087 0.0003085446644136442
0.005663170363156723 -0.003261501301320659 0.0001799045281246604
0.005701918370578891 -0.002848664642216682 7.408517127292602e-05
0.005733111538306895 -0.002485247962869788 -1.227813310443558e-05
0.005755894977070007 -0.002165593406592556 -8.193906649805605e-05
0.005770109455419475 -0.001884694660536359 -0.0001373896775868215
0.005776137694759164 -0.001638106834299469 -0.0001808546665184625
0.005774730397273357 -0.001421880432484048 -0.0002142714620515653
0.005766873457788262 -0.001232497664975997 -0.0002394563465509238
0.005753721956362647 -0.001066821963696722 -0.0002580993915630334
0.005736509434179493 -0.0009220603968988989 -0.0002715348006781166
0.005716481407008561 -0.0007957271518575097 -0.0002809215435601689
0.005694900671439887 -0.0006856142523102698 -0.0002871940460641061
0.005672999723906337 -0.0005897715181530344 -0.0002908740242899743
0.005651969175954866 -0.0005064803935652555 -0.0002924456236911163
0.005632988397454044 -0.0004342341995037035 -0.0002922273612618715
0.005617188530882514 -0.0003717220724983417 -0.0002904278320779166
0.005605674999055149 -0.0003178091758189153 -0.0002874478581042181
0.005599540721600896 -0.0002715234906461575 -0.0002836441165663582
0.005599842118793375 -0.0002320455036884838 -0.0002795023682242555
0.005607637705348454 -0.0001986969420340849 -0.0002756381137343063
0.005623981713364077 -0.0001709366940047367 -0.0002725675062318476
0.005649934581460835 -0.0001483577695217554 -0.0002708631818633666
0.005686599731702354 -0.0001306858177561976 -0.0002709450336965001
0.005735119532911485 -0.0001177805347727378 -0.0002730273749787221
0.005796718231716473 -0.0001096379110651638 -0.0002772236656073111
0.005872722824708319 -0.0001063940375021683 -0.0002833296601332949
0.005964578887091318 -0.0001083296131667943 -0.0002910191339393057
0.006073904309090808 -0.0001158775477673617 -0.0002998519891071112
0.006202493405617206 -0.0001296337424862739 -0.0003091989932177164
0.006352357071172331 -0.0001503680301604104 -0.0003185737646543155
0.006525769445033621 -0.0001790421510490242 -0.0003274592494433274
0.006725265566417353 -0.0002168344481649324 -0.0003354007625031752
0.006953709754794313 -0.0002651634407277325 -0.0003422079003694659
0.007214331312583177 -0.0003257222355738431 -0.0003475885727811332
0.00751073982758065 -0.0004005165224283775 -0.0003513341874371271