# OOMMF: rectangular mesh v1.0
# Segment count: 1
# Begin: Segment
# Begin: Header
# Title: 
# Desc: time = 2.4086099868290936e-10
# Desc: stepsize = 3.9812930326039296e-13
# Desc: step = 560
# meshunit: m
# valueunit: (none)
# valuemultiplier: 218605.2778895711
# xmin: 0
# ymin: 0
# zmin: 0
# xmax: 4e-07
# ymax: 1e-07
# zmax: 4e-09
# ValueRangeMaxMag: 1
# ValueRangeMinMag: 0.003869289883078313
# meshtype: rectangular
# xbase: 2e-09
# ybase: 2e-09
# zbase: 1e-09
# xstepsize: 4e-09
# ystepsize: 4e-09
# zstepsize: 2e-09
# xnodes: 100
# ynodes: 25
# znodes: 2
# End: Header
# Begin: Data Text
0.831497821469362 -0.5374569401686528 -0.1397947260924951
0.2492308409040088 -0.3673951667450592 0.06888570247152892
0.1169750165542501 -0.2953319070045402 0.08337984644750859
0.06278318743708912 -0.2495507604824195 0.07993309904942421
0.03477334421731411 -0.2140423662598222 0.07301814628457948
0.01861787290727922 -0.1843557434158373 0.06539115526793454
0.008791639374170056 -0.1588629699142495 0.05788856574381268
0.002697874941778716 -0.1367670562433745 0.05082249842940256
-0.001052197183764866 -0.117557880228011 0.044313312301683
-0.003270609037541732 -0.100845976885772 0.03839731780813743
-0.00446329808166261 -0.08630757171750107 0.03306990197622852
-0.004960412781277752 -0.07366454149121271 0.02830561492874044
-0.004984881514247435 -0.06267550091113983 0.0240686026702128
-0.004691096549967843 -0.0531304642702719 0.0203184279425444
-0.004188018006779756 -0.04484678263122412 0.01701350872458432
-0.003553579234881571 -0.037665586538885 0.01411299716717438
-0.002843959219256319 -0.03144860601845234 0.01157784882401099
-0.00209979284362321 -0.02607536745856766 0.009371523319939188
-0.001350417051267088 -0.02144070711631386 0.007460003964530222
-0.000616801207014119 -0.01745260792450727 0.005811814301761386
8.631989500219475e-05 -0.01403034134144015 0.004398081716891222
0.0007489058479542421 -0.01110291460215863 0.003192222911088324
0.001364520216096031 -0.008607756827999663 0.002169896136241071
0.001929477594006478 -0.006489630433521932 0.001309069985385373
0.002442205673149515 -0.00469976666924489 0.0005897110825494045
0.002902766655488739 -0.003195094494685872 -6.228106673922457e-06
0.003312443210506689 -0.001937584855582319 -0.0004949289627688465
0.003673393608864975 -0.0008937061335774238 -0.0008909247566353118
0.003988378157965777 -3.389213839630203e-05 -0.001207260967571914
0.004260567996698975 0.0006679276163492654 -0.001455569042160657
0.004493382573815259 0.001234698370933911 -0.00164607800731623
0.004690370509600808 0.001686566382421936 -0.001787799214009644
0.00485513951617537 0.002041162534629747 -0.00188853484265358
0.00499127503266246 0.002313887373022309 -0.001954968736058256
0.005102277280924728 0.002518165704211543 -0.001993001646565449
0.005191507658242354 0.002665685189504182 -0.002007855870829037
0.005262134141936925 0.002766618394031996 -0.002004047163452576
0.005317134663217122 0.002829799728073407 -0.001985497549322452
0.005359335591378973 0.002862887599933509 -0.001955578584774843
0.005391425124180091 0.002872447606520767 -0.001917219704097529
0.005415925015570654 0.00286404854186261 -0.001872856146831902
0.005435173006592233 0.002842385652900092 -0.001824590970065705
0.005451349525262745 0.002811421640449656 -0.00177429543324908
0.005466496872386501 0.002774491652118115 -0.001723524366738316
0.0054825507291736 0.002734331716112552 -0.001673584566403477
0.005501363520901432 0.002693106686005431 -0.001625418746380933
0.005524725466146581 0.002652448001008547 -0.001579708046026698
0.005554395004115265 0.002613533664400655 -0.001536863899893054
0.005592111165249469 0.002577158268108463 -0.001497182243918193
0.005639627330865989 0.002543760764215099 -0.001460878347255104
0.005698742294549575 0.002513413164463387 -0.001427918851693632
0.005771347315952404 0.002485792134187553 -0.001398071626858658
0.005859468464272718 0.002460172411032837 -0.001370804526309366
0.005965300616261079 0.002435426622315931 -0.001345452394429817
0.006091248109857842 0.002410023936225469 -0.001321192005050203
0.006239961140387319 0.002381956880130182 -0.001297029035939692
0.006414409620281863 0.00234862835909326 -0.001271681750012513
0.006617930520842504 0.002306756127158866 -0.001243375205654473
0.006854274895700735 0.002252295346226967 -0.001209975944582014
0.007127687052685535 0.002180353996917473 -0.001168957581079312
0.007442997422742847 0.002085035430397078 -0.001117457818902458
0.007805713089661098 0.00195925387475592 -0.001052006909626004
0.00822208504051293 0.001794487774852985 -0.000968409799901578
0.008699207902161421 0.001580520908574892 -0.0008618097689145678
0.009245117148033605 0.001305204261953291 -0.0007264196780037385
0.009868909241398298 0.0009541659776897609 -0.0005553693899471459
0.01058091586647229 0.000510433921397399 -0.0003405177204979912
0.01139285152788238 -4.606004048691334e-05 -7.235108854582162e-05
0.01231791857627919 -0.0007389581537551342 0.0002603674293549191
0.01337090053029262 -0.001596019900448764 0.0006710417713002908
0.01456830190615649 -0.002649772963439997 0.001175481756384703
0.01592847563520737 -0.003938157833187426 0.001792455533223439
0.01747163803317899 -0.005505210692018416 0.00254414921624747
0.01921985470395049 -0.007401775454663719 0.003456393236150695
0.02119692262597147 -0.00968625498663441 0.004559312837712922
0.02342801631101848 -0.01242528085772939 0.005887923379338826
0.02593912330710807 -0.0156942392769022 0.007482658195581502
0.02875618915391285 -0.01957763308898434 0.00938988252690222
0.03190385960677217 -0.02416908288260209 0.01166241860148781
0.03540369785581778 -0.02957089980324653 0.01435990611714709
0.03927180934716658 -0.03589320586220968 0.0175484927283787
0.04351575337677854 -0.0432523481602242 0.0213007221800631
0.04813062047307232 -0.05176857838300506 0.02569473538608022
0.05309446686206896 -0.06156295621832304 0.0308124099127103
0.05836327318803881 -0.07275341500003965 0.03673727151226457
0.06386580342737488 -0.08545009669172991 0.04355108027298071
0.06949925075096694 -0.09975015291642601 0.05132903921870732
0.07512649249861009 -0.1157322188423506 0.06013466289379093
0.08057598731625183 -0.133450577101471 0.07001377299770332
0.08564530054890311 -0.1529287452346494 0.08098860932057692
0.09010837436808612 -0.1741512856085536 0.09305338722748895
0.09372601209433706 -0.197050716393362 0.1061716378827532
0.09625833694235267 -0.2214828943508012 0.1202760952928062
0.09747898129917601 -0.2471759060092837 0.1352713493737408
0.09719918972663877 -0.2736160078463767 0.1510393493237041
0.09534365332643931 -0.2997709831770805 0.16745325364852
0.09227218748148389 -0.3233246246001438 0.1844404962175624
0.09041291227176644 -0.3380723581546671 0.2024063002746537
0.1057085192301115 -0.3216266063014349 0.2266953486610303
0.3327377881346714 -0.133186089833241 0.3582990476917431
0.8778436535443914 -0.1883509228927602 -0.2400838938263796
0.3094229780153024 -0.1717751968560184 -0.005994573230771949
0.1560863566230815 -0.1429725926774896 0.01908517078723572
0.0914030516020167 -0.1196959189728527 0.02308719691155313
0.05761257608140086 -0.1013781917131274 0.02282766077473713
0.03765177211913261 -0.08648135996110176 0.02134416975400712
0.0249711371645584 -0.07406020290292502 0.01946888373575975
0.01657347726108467 -0.06355635513772995 0.01749652376763964
0.01089617436442727 -0.05460682336595457 0.01555356075783888
0.007039005801643354 -0.04694950999772228 0.01370179399678405
0.004442371395127121 -0.04038045658354642 0.01197288015382561
0.002737967514197215 -0.03473400633518171 0.01038197860598827
0.001672947548496792 -0.02987270769981284 0.008934246131138428
0.001068286714122159 -0.02568138603294683 0.007628517630991899
0.0007943335407646814 -0.02206310711593542 0.006459756520217096
0.0007556676546524952 -0.01893609685204031 0.005420568325529776
0.0008813117393150379 -0.01623124982141925 0.004502242450684762
0.001118113283987526 -0.01389005206569557 0.003695615669810349
0.001426158803140145 -0.01186283620676078 0.002991300151457686
0.001775543122378953 -0.01010731539374032 0.002379953950934675
0.002143966730203166 -0.008587359263047937 0.001852587830622255
0.00251496442806192 -0.007271983393537172 0.001400456086057994
0.002876618724370712 -0.00613450932933927 0.00101522984150967
0.003220529241118205 -0.005151881371458681 0.0006892623670516163
0.00354104107192816 -0.004304112015974525 0.0004154280417248656
0.003834668419403923 -0.003573825110091225 0.0001872457303987724
0.00409959327168411 -0.002945876541020707 -1.1450476710989e-06
0.004335264314472102 -0.002407041167588992 -0.0001550941974802208
0.004542079481006246 -0.001945741999684684 -0.0002794826732850737
0.004721137161342632 -0.001551823920881628 -0.0003786915532484151
0.004874021906971929 -0.001216370792318266 -0.0004565221649736957
0.005002651734700659 -0.0009315530908006835 -0.0005163156908129946
0.005109190075139903 -0.0006904927212121226 -0.0005608655272900739
0.005195947951063259 -0.0004871489853467774 -0.0005924453666177871
0.005265303052373801 -0.0003162186857115178 -0.0006131184104349065
0.005319634450180433 -0.0001730445571920718 -0.0006247885042062545
0.005361251055148377 -5.353400567695397e-05 -0.0006290992206304896
0.005392373901529199 4.590796746195667e-05 -0.000627482926592242
0.005415144891396136 0.0001284313488501067 -0.0006211666112537688
0.005431622780074761 0.0001967785151303315 -0.0006112582063724465
0.005443764282942511 0.0002533210011019355 -0.0005986623167916066
0.005453417696242184 0.0003000988111362238 -0.0005842174136751257
0.005462344831500767 0.0003388600320397387 -0.0005687612912858506
0.005472210353349517 0.0003710940168541453 -0.0005530001436223703
0.005484591710510257 0.0003980521422786636 -0.0005375615398573654
0.005501003254332732 0.0004207603216607076 -0.0005228622120724032
0.005522930201555819 0.0004400347857248496 -0.000509203434248539
0.005551868184723305 0.000456502878302528 -0.0004967434148512969
0.005589321402653504 0.0004706210263732899 -0.0004856433674450808
0.005636814203429021 0.0004826846955697344 -0.0004761004575462182
0.00569590729963746 0.0004928308737478864 -0.0004681620919967808
0.005768245164173125 0.0005010336841587213 -0.0004617795566132294
0.005855603404746577 0.0005070995597117599 -0.0004567044623097776
0.005959921991308339 0.0005106621258691504 -0.0004526779104779914
0.006083328140086031 0.0005111701917194553 -0.0004494224411903469
0.006228143818966951 0.0005078671658570232 -0.0004466401948783806
0.006396951797746629 0.0004997610351168014 -0.0004439156535933246
0.006592649343740597 0.0004855896882096999 -0.0004405275002992101
0.006818496103241489 0.0004637856406376057 -0.0004356317875681683
0.007078174211203435 0.0004324361512804532 -0.0004282656864411656
0.007375852592960797 0.0003892289234963074 -0.0004174505971432688
0.007716250558130714 0.0003313846448871699 -0.0004019811745445944
0.008104686183596671 0.0002555779485804043 -0.0003803884026346997
0.008547178932044283 0.0001578507553939361 -0.0003510984698102763
0.009050537512470661 3.352154647288672e-05 -0.0003122252135375082
0.009622439819612007 -0.000122915359929821 -0.0002615112263965895
0.01027155558925455 -0.0003179161980710422 -0.0001962934000115096
0.01100766976396519 -0.0005590314378592306 -0.0001135639686784789
0.01184177595622256 -0.0008550556758009844 -9.781343249030597e-06
0.01278613262244402 -0.001216186222169291 0.0001194027720641523
0.01385438346870669 -0.001654189177244375 0.0002791683062723748
0.01506168808743791 -0.00218255757219423 0.0004758541803455977
0.01642473564952244 -0.002816657593751463 0.0007171766945631803
0.01796173800202875 -0.003573848882636993 0.001012151564696811
0.01969235701886748 -0.004473562897429894 0.001371462438019579
0.02163744723027447 -0.005537303943053832 0.001807783828206133
0.02381862364464383 -0.00678854682723221 0.002336058620429655
0.02625759912321659 -0.008252496277169693 0.002973831988094143
0.02897518615727895 -0.009955676290154349 0.003741677224724056
0.03198980022071795 -0.01192531656137482 0.004663597495631984
0.03531542049352075 -0.01418853389816969 0.005766911217819526
0.03895887572919234 -0.01677131104254554 0.007082569581873965
0.04291626450746292 -0.01969731104968923 0.008645096065126912
0.04716867944201747 -0.02298661273244403 0.0104917760671508
0.05167735185576222 -0.02665451509437159 0.01266197066162244
0.05637853616771946 -0.03071054950107933 0.01519540586476215
0.06117905655525063 -0.03515784640595316 0.01812927043227084
0.06595350566388382 -0.03999286178604749 0.02149504396465762
0.07054450568190959 -0.04520510884092127 0.02531427286738169
0.07476773996576225 -0.05077598542180183 0.02959414760260552
0.07842319173857919 -0.05667472700036331 0.03432415279926659
0.08131444141491648 -0.06284782768689055 0.03947421157012217
0.08327962122591981 -0.06919518894445933 0.04499576787260573
0.08424527323410821 -0.07551974010201909 0.05082758325515686
0.08434220096160239 -0.08142130002576355 0.05691030639931507
0.08421966584500711 -0.08606226364464323 0.06322808289098815
0.08608511474539397 -0.08760726300692012 0.06996994248637724
0.09791735113177719 -0.08178734509384444 0.07841418376919423
0.1559069404329004 -0.05867594851036883 0.09862074278165661
0.516634808945606 -0.007197631627702337 0.2712221470876829
0.8537243175932071 -0.1032153937709275 -0.2462464830781077
0.3230956934913756 -0.1128602401657127 -0.01662774987955889
0.17475052127993 -0.1038505701163823 0.01051290804666909
0.1081143782841548 -0.09088690210453963 0.01633475067304729
0.07173363699065623 -0.07844018971192755 0.0173990493374152
0.04954756101306043 -0.06748607178061386 0.01690942715529675
0.03504266932918775 -0.05806037119881861 0.01581298108804299
0.02513855208874845 -0.04999495730340643 0.01446888665295308
0.01820257709115119 -0.04309997854630241 0.01304158012062736
0.01328558669608816 -0.03720296547872061 0.01161766688701475
0.009792779840916439 -0.03215433870730675 0.01024651692728532
0.007328803247536651 -0.02782597883629219 0.008956640892021837
0.005618928248560513 -0.02410876522090797 0.007763541883426405
0.004465927360145272 -0.02091017314405802 0.006674172295096171
0.003724843876010534 -0.01815206201215922 0.005689899833787076
0.003287370926308592 -0.01576864382058791 0.004808425152469702
0.003071704986163936 -0.01370465062202778 0.004025130489484286
0.003015630662889741 -0.01191369505512272 0.003334158511822096
0.003071677025811415 -0.01035683189147238 0.002728823768984375
0.003203651638939864 -0.00900131790582959 0.002202030227576435
0.003384030403228395 -0.00781955393356972 0.00174666176238063
0.003592008834984227 -0.006788202770220316 0.001355552555573825
0.003812057555212176 -0.005887446853004704 0.001021736744460858
0.004032756295353726 -0.00510038436055462 0.0007387449758386624
0.00424591575808544 -0.00441253761030213 0.0005004813549042991
0.004445913678670903 -0.003811448657157637 0.0003013898874966287
0.004629121622227351 -0.003286347129483683 0.0001364285336503038
0.004793451351579236 -0.00282788261891849 9.606744379161793e-07
0.004937992170876299 -0.002427899919694483 -0.0001092480221326844
0.005062718189122405 -0.00207925923163215 -0.0001979854109828935
0.005168240300859992 -0.001775692121969208 -0.0002685259473497992
0.005255630930032847 -0.001511680316259076 -0.0003237458897754807
0.005326316521276996 -0.001282352251590995 -0.0003660128316491824
0.00538196172756157 -0.001083403283652262 -0.0003972152004958367
0.005424377891684909 -0.000911027113378555 -0.0004190843856634107
0.005455449861152596 -0.0007618516607009184 -0.0004332324317239441
0.00547705209436438 -0.0006328852437127361 -0.0004410439109825202
0.005491018511653522 -0.0005214764947959225 -0.0004437301341266317
0.005499141221539439 -0.0004252806186895882 -0.0004423260711920451
0.005503160116797 -0.0003422329349747154 -0.0004377673118310391
0.00550474238361926 -0.0002705241333118869 -0.0004308106594106333
0.005505476699481503 -0.0002085777138335754 -0.0004221762156753863
0.005506894011762875 -0.0001550291864416308 -0.0004126055487290465
0.005510449720417403 -0.0001087058399544972 -0.0004027171706542896
0.005517525883559885 -6.861110853371326e-05 -0.0003930683195732047
0.00552945403415517 -3.391430448458514e-05 -0.000384031402229906
0.005547550708102978 -3.939086778898864e-06 -0.000375883920883682
0.005573157005658433 2.18474303722528e-05 -0.0003687747668957393
0.005607632737989543 4.384260688986256e-05 -0.0003628638418100497
0.005652362625003781 6.231343022931594e-05 -0.0003583622926128941
0.0057087679602729 7.740025716007708e-05 -0.0003553438829863238
0.005778350350817709 8.911487103049591e-05 -0.0003537977199534066
0.005862737446132374 9.733570750250717e-05 -0.0003535275561135689
0.005963713244186313 0.0001018021809492052 -0.0003543395342788854
0.006083236162801026 0.0001021037670043822 -0.0003560386166525057
0.006223439920881046 9.766725565930332e-05 -0.0003584236292055856
0.006386693711961046 8.773919171075146e-05 -0.000361202215084587
0.006575653212188265 7.136270840318071e-05 -0.0003638088520386413
0.006793304764255268 4.735105734741165e-05 -0.0003655871983936392
0.007043018701247853 1.42571281583891e-05 -0.0003657966854270836
0.007328604038960819 -2.966477179038125e-05 -0.0003637183258919949
0.007654363353396028 -8.650211115847838e-05 -0.0003584635555497533
0.008025134498066654 -0.0001587318054921293 -0.000348947238137492
0.008446387406707421 -0.0002492761164166237 -0.0003340554102100877
0.008924306226677958 -0.0003615646255690402 -0.0003124426377865258
0.009465858411654192 -0.0004995981646821206 -0.0002824800038376954
0.01007890411478178 -0.0006680239631026327 -0.0002422528084245563
0.01077231279343726 -0.000872216030936565 -0.0001896490479365471
0.01155605506803526 -0.001118355488437927 -0.0001221862919405644
0.01244125822309251 -0.001413508893320531 -3.675293611465366e-05
0.01344033173010197 -0.00176570203499816 7.038759776863327e-05
0.01456711645465819 -0.002183976747175069 0.0002038888891243094
0.01583692804289695 -0.002678420649022424 0.0003695350418464094
0.01726659030179495 -0.003260153800570422 0.0005741425249701592
0.01887442948152281 -0.003941260984980994 0.0008258814459866533
0.02068011333064674 -0.004734636730311259 0.001134599100145795
0.02270433757153909 -0.005653721057097872 0.001512115630423215
0.02496831199886692 -0.006712100950983847 0.001972567618488968
0.02749294092713819 -0.007922955944771128 0.002532874026038798
0.03029751555824075 -0.009298315532014026 0.003213239057178753
0.03339785256024339 -0.01084813604874049 0.004037159686704254
0.03680372675446261 -0.01257922304071841 0.005031860203770648
0.04051535991445504 -0.01449405232708154 0.006228436571498679
0.04451907250318222 -0.01658959072777886 0.007661271403108852
0.04878218320673054 -0.01885631837378425 0.009367488493108466
0.05324746554721312 -0.0212776171614008 0.01138536151581176
0.05782814201595559 -0.02382972548004914 0.01375140463372317
0.06240464076661852 -0.02648233282830817 0.01649691203479751
0.06682498461074492 -0.02919954132318407 0.01964322985892544
0.0709112931551613 -0.03194039197020897 0.02319662285933622
0.07447508110957822 -0.0346571871929277 0.02714408223407113
0.07734516385114835 -0.03728847526683167 0.03145084768885612
0.07941520785201801 -0.03974147542487565 0.03606156271209181
0.0807292398959077 -0.04185527400660039 0.0409075894313743
0.08166037663475054 -0.04332979361073178 0.04592639402681751
0.08335684665178084 -0.04359511037753513 0.05111715254401136
0.08905647832206312 -0.0415921222056024 0.05674732075796862
0.1086998703069459 -0.03554798651175214 0.06439545943246308
0.1799844848665685 -0.02368948086145297 0.08506267661686037
0.5412011958179077 -0.01046336726227209 0.257945652203606
0.8196340707058765 -0.06863051497649149 -0.2442470255308562
0.3204069415433518 -0.08661504274328977 -0.02247858652169123
0.1825296457788905 -0.08659751792653027 0.005089047687447896
0.1186154133658679 -0.07983148520907529 0.01218183994700469
0.0821436898464047 -0.07106125995381793 0.01437596930605902
0.0589934762525227 -0.06226718879362526 0.01474474676959805
0.04333714899109168 -0.05417788218684494 0.01427336546308059
0.03232264472915588 -0.04700128136556855 0.01337951636887285
0.02438694660548711 -0.04074055998941339 0.0122761096542411
0.01859546810834852 -0.03532321758999352 0.01108551969042511
0.01434858786949688 -0.03065340869344857 0.009882810181196877
0.01123944318276487 -0.02663334901389451 0.00871488210590007
0.008979956510419645 -0.02317198839848806 0.007610425328818574
0.007359708416188298 -0.02018818758835483 0.006585852207742946
0.006221563942819913 -0.01761140833971 0.00564929000087092
0.005446392396452313 -0.01538124937109429 0.004803262509683591
0.004942997131643949 -0.01344649179593522 0.004046593927275023
0.004641146755113728 -0.01176396130364658 0.003375864749813494
0.00448661434732343 -0.01029738136901334 0.002786112339533857
0.004437561195858758 -0.009016304541851355 0.002271456206361442
0.004461773553019347 -0.007895152260910122 0.001825616133551413
0.004534569537738653 -0.006912392010871326 0.001442004319340505
0.004637216264686052 -0.0060498326613531 0.001114072075294263
0.004755642810380723 -0.005292042148886746 0.0008356351526547398
0.004879465938983999 -0.004625866923033752 0.0006007858761004685
0.005001243615053801 -0.004040035152704423 0.000404117789866848
0.005115830141351765 -0.003524831066979472 0.0002407141452117404
0.00521986859252426 -0.003071838076537681 0.0001060293671587669
0.005311382941768398 -0.002673722110944622 -4.091049811516782e-06
0.005389443866095681 -0.002324060714072598 -9.335519372012423e-05
0.005453890906167665 -0.002017206592113194 -0.0001649670879294641
0.005505135079055075 -0.001748173626969732 -0.0002217362888818037
0.005544029982538274 -0.001512543698426909 -0.0002659585974090442
0.005571739086024913 -0.00130639677480326 -0.0002994574260034655
0.005589636181863895 -0.001126249605922893 -0.0003239143701134695
0.00559922455140814 -0.0009689992449208102 -0.0003408897379239672
0.005602039745787723 -0.0008318781438150971 -0.0003517137193378272
0.005599609875330802 -0.0007124229217142869 -0.0003575576994910035
0.005593450764007389 -0.000608445296902826 -0.0003594244786935101
0.005585051246546718 -0.0005180076846592012 -0.0003582107280971881
0.005575848105374518 -0.0004394020678656789 -0.0003546355911703851
0.005567218502248402 -0.0003711321735349757 -0.0003493910369528475
0.005560501063876626 -0.0003118975739720754 -0.0003431948959075717
0.005556975546375513 -0.0002605769836650931 -0.0003366353672598964
0.005557860516297484 -0.0002162140125585173 -0.0003302448818183613
0.005564334937014932 -0.0001780074058304962 -0.0003243898924294883
0.00557757265195892 -0.0001453005298361054 -0.0003193531897388988
0.005598779946972695 -0.0001175733276213266 -0.0003152930933577468
0.005629187532515417 -9.443691330773353e-05 -0.0003123764011709662
0.005670054806372533 -7.562967636379374e-05 -0.0003108284104814129
0.005722678941438743 -6.101388331239278e-05 -0.0003107437997161667
0.005788434266796235 -5.057781887799918e-05 -0.0003121373027557248
0.005868815534768044 -4.444117032266725e-05 -0.000314845845600535
0.005965465934672648 -4.286061376568191e-05 -0.0003187107150596125
0.00608019284942334 -4.623963657139685e-05 -0.0003235762642914347
0.006214965283503114 -5.513937908283709e-05 -0.0003292822588517721
0.006371968961969574 -7.029397787252101e-05 -0.0003355945192425805
0.006553653762257383 -9.263113504315648e-05 -0.0003420279612030761
0.006762773578073051 -0.0001232958513018043 -0.0003480196181892016
0.007002434851077512 -0.0001636779726362992 -0.0003529346974204852
0.007276146166769395 -0.0002154458441228303 -0.0003561746578781162
0.007587869296564681 -0.0002805827513346937 -0.0003570048185318186
0.007942056173099191 -0.0003614260291908857 -0.0003545271120307221
0.008343738064653912 -0.0004607147385898516 -0.0003478482825261313
0.008798603489572815 -0.0005816435781474251 -0.0003358816283967875
0.00931306434054634 -0.0007279161428900071 -0.0003172930660264243
0.009894360706296641 -0.0009038045075961197 -0.0002905169985291764
0.01055067546412714 -0.001114210504396513 -0.0002538640134678561
0.01129122919670958 -0.001364725191645059 -0.000205359205537839
0.01212634301580461 -0.001661681953699359 -0.0001424830870433611
0.01306757572295437 -0.00201220101819095 -6.218308948405344e-05
0.01412789861338777 -0.002424214427998345 3.939261644616443e-05
0.01532177999519981 -0.002906457515509582 0.0001671181291544156
0.01666526901520243 -0.003468409294848653 0.0003268001379639028
0.01817606373227611 -0.004120175018453315 0.0005254703896722099
0.01987345272963042 -0.004872279184015511 0.000771724053293385
0.02177812451898969 -0.00573534366957602 0.001076052617676161
0.0239118023104008 -0.006719621411642673 0.00145121903025554
0.02629660185140133 -0.007834375004858302 0.001912773151507338
0.02895391441973465 -0.009087051736518975 0.002479655075915255
0.03190272119501446 -0.01048225741905019 0.003174332585623222
0.03515716423610026 -0.01202055246097555 0.004023348110726259
0.03872309101103936 -0.01369711620121179 0.005057649901635874
0.04259360461156146 -0.01550037319716273 0.00631221432167952
0.04674365748276947 -0.01741079542348922 0.007825614613116157
0.05112396858808394 -0.01940007949521053 0.0096385136732366
0.05565526520580431 -0.02143097173404784 0.0117906949399714
0.06022426309511759 -0.02345795160542856 0.01431722889892091
0.06468365613678682 -0.02542872351794251 0.01724310972888017
0.06885928106527701 -0.02728604213868126 0.0205771827488082
0.07256818317307999 -0.02896858914150372 0.02430676279541409
0.07565276459583173 -0.03040860992797877 0.02839405360743999
0.0780397814617477 -0.03152286785109071 0.03277669558078296
0.0798446288044736 -0.03219260874228265 0.0373755637967329
0.08157795637154479 -0.03222884543738832 0.0421168699467416
0.08462350981102219 -0.03132642403887446 0.04699521882886649
0.09253807824687539 -0.02904320931452987 0.05229762585493611
0.1153357925622638 -0.02496342995297022 0.0596705499308025
0.1888485587646326 -0.01956759117825607 0.0800658087025958
0.5406272382913064 -0.01744304706350378 0.2489682511424679
0.7819085911711341 -0.05068319137334175 -0.2407211774596368
0.3111614653580354 -0.07207696503816276 -0.02786275639190782
0.184261374413878 -0.07667094586682836 -0.0005297959339459436
0.1249638138371911 -0.07389131253530037 0.007536860182437599
0.09000327395112663 -0.06786793531238382 0.01083203910148698
0.06691780968899852 -0.06076075272762005 0.01214881925908987
0.05071364030172518 -0.05364568410790316 0.01241955042365133
0.03893495789141442 -0.04701008065230849 0.01208156618725358
0.03019976787272512 -0.04103863487405834 0.01138481019090351
0.02365243266292286 -0.03576741591378819 0.01048745858653185
0.01872419391412975 -0.03116335997322525 0.009494090023320259
0.01501635696134148 -0.02716449946049921 0.008474423046652337
0.01223844599050423 -0.02370008654700199 0.007474246215676949
0.01017302295758493 -0.02070041968882554 0.006522563233923997
0.008654294990667673 -0.01810134362913271 0.005636647330217732
0.007554331659915523 -0.01584596697031837 0.004825609075562778
0.006773713956176971 -0.01388496181894801 0.004092985213462528
0.006234876471119877 -0.01217614540414619 0.003438689759102442
0.005877238239057098 -0.01068374493560587 0.002860107029525662
0.005653557498317235 -0.009377562662342654 0.002352997461958744
0.005527085819508307 -0.008232142740847059 0.001912198715992794
0.005469369634409658 -0.007226018514682123 0.001531877274735259
0.005458553094638685 -0.006341044836206859 0.001205998853090144
0.005477984558831823 -0.00556182932024002 0.0009287149586359985
0.00551515179586167 -0.004875254085179528 0.000694323343837314
0.005560855650149635 -0.00427007938731139 0.0004975542498844919
0.005608493996157122 -0.003736616605130589 0.0003335947041706706
0.005653498942306746 -0.003266470389901092 0.0001979670842480675
0.005692883527584717 -0.002852319875972248 8.656642090613615e-05
0.005724866447535353 -0.002487745492706921 -4.273070213365926e-06
0.005748564690516211 -0.002167091592352016 -7.772440564694093e-05
0.00576377221538038 -0.001885353437274026 -0.0001365632918308158
0.005770807990411159 -0.001638085871691671 -0.0001830462405809939
0.005770367914649253 -0.001421335722371039 -0.0002189659678991395
0.005763417686358172 -0.001231580063135659 -0.0002459840954559965
0.005751103126815389 -0.001065672776929461 -0.0002656346374504449
0.005734639405101422 -0.0009208035898316727 -0.0002792137076698252
0.005715263391170587 -0.0007944686571771932 -0.0002878703314938812
0.005694228048502455 -0.0006844407373374526 -0.0002925936607105135
0.005672783722460463 -0.0005887436507666065 -0.000294259040514057
0.005652146933703967 -0.0005056318393235376 -0.0002935636176376089
0.005633490427535496 -0.0004335736745785361 -0.0002911811485548818
0.005617964967797161 -0.0003712364959813047 -0.0002878107277290525
0.005606677953838607 -0.0003174707098013728 -0.000284015427588121
0.00560068761587529 -0.000271295487575671 -0.0002803074130530601
0.005601023200457356 -0.0002318886243708657 -0.0002770522328493141
0.005608717338073328 -0.0001985760795212902 -0.0002745412926103876
0.005624841105833346 -0.0001708249398253335 -0.0002729436128512568
0.005650494891674464 -0.0001482385761894379 -0.0002724332170013328
0.005686811292466078 -0.0001305525551377068 -0.0002732485281393865
0.005734961610161234 -0.0001176315406528818 -0.0002755045607042693
0.005796190763901094 -0.0001094718097864994 -0.0002792392993027424
0.005871858123448807 -0.0001062066651128058 -0.0002843186318328029
0.005963463946647395 -0.0001081119999931031 -0.0002906105880190254
0.006072663441872553 -0.0001156155772785664 -0.0002979864044078407
0.006201260769274298 -0.0001293075493673387 -0.0003063139795835382
0.006351259030061241 -0.000149956089469868 -0.0003154053419442205
0.006524904710042014 -0.0001785277772020416 -0.0003248431657053826
0.006724723639537331 -0.0002162101630147626 -0.0003341384658067341
0.00695356499090513 -0.0002644378157632038 -0.000342736815230026
0.007214647072296909 -0.0003249245853312504 -0.000350134288350636
0.007511605952327928 -0.0003996977468991164 -0.0003557241869292822