# OOMMF: rectangular mesh v1.0
# Segment count: 1
# Begin: Segment
# Begin: Header
# Title: 
# Desc: time = 5.418926241584368e-11
# Desc: stepsize = 5.409250941912222e-13
# Desc: step = 100
# meshunit: m
# valueunit: (none)
# valuemultiplier: 218552.6803110574
# xmin: 0
# ymin: 0
# zmin: 0
# xmax: 4e-07
# ymax: 1e-07
# zmax: 4e-09
# ValueRangeMaxMag: 1
# ValueRangeMinMag: 0.003873045085087967
# meshtype: rectangular
# xbase: 2e-09
# ybase: 2e-09
# zbase: 1e-09
# xstepsize: 4e-09
# ystepsize: 4e-09
# zstepsize: 2e-09
# xnodes: 100
# ynodes: 25
# znodes: 2
# End: Header
# Begin: Data Text
0.8317159831078831 -0.5368998473333249 -0.1398901554214052
0.2493667648773691 -0.3666265799196969 0.06892958281005961
0.1170961511270298 -0.2945962057016979 0.08342432335923319
0.06289135276086107 -0.2488872786576332 0.07996450553101017
0.03487018524994975 -0.2134548570648773 0.07303642799975753
0.01870523397501945 -0.1838382608141226 0.06539885620998939
0.008871162204713753 -0.1584070144820086 0.0578884593733208
0.00277091091809435 -0.1363641026224846 0.05081690481593701
-0.0009845467651567693 -0.1172002755382882 0.04430400422633318
-0.003207447335408867 -0.1005271939110635 0.03838565806061358
-0.004403914718602396 -0.08602222924181697 0.03305697252578922
-0.00490424491535427 -0.07340828803938208 0.02829239913420989
-0.004931475689015223 -0.06244487790115168 0.02405610890137651
-0.004640084248165944 -0.05292277824386338 0.02030775488015627
-0.004139094954055306 -0.04465995824461528 0.01700573852105428
-0.003506489825998792 -0.03749800827017279 0.01410903850700403
-0.002798521478155883 -0.03129896922998517 0.01157829966478131
-0.002055923620498478 -0.02594250137835986 0.009376393466352887
-0.001308130659667332 -0.02132343383794207 0.007468712969882698
-0.00057621563605613 -0.01734964771083355 0.005823329834784762
0.0001250229232920271 -0.01394030015348843 0.004411084017056403
0.0007855570989277579 -0.0110243535531013 0.003205471203762647
0.001399017747133281 -0.008539302445598609 0.002182558707613154
0.001961843687682585 -0.006430135340194243 0.001320831800995096
0.002472584735342306 -0.004648396520985861 0.0006007949015648474
0.002931369505241829 -0.003151345357720064 4.708529870540962e-06
0.003339465061764675 -0.001901210638345959 -0.0004836142225787294
0.003698914318171103 -0.0008645251367389349 -0.0008789344266631365
0.004012327616820704 -1.163264841651784e-05 -0.001194584181912237
0.004282743324065539 0.0006837155090363958 -0.001442419525037173
0.004513550028440773 0.001244648600234073 -0.001632658821845896
0.004708407589133414 0.001691374595304242 -0.001774019694344003
0.004871065880798783 0.002041498238692687 -0.001874163078590349
0.005005208641053786 0.002310374701854019 -0.001939974538820211
0.005114340881593594 0.002511441216970947 -0.001977735229485509
0.005201731118366557 0.002656519140586369 -0.001993037914526064
0.005270534862377092 0.002755890753896779 -0.001990441174385275
0.005323881332183051 0.002818290513866464 -0.001973591446160473
0.005364715531278117 0.002851145728020679 -0.001945756566877332
0.005395680126825121 0.002860882760884277 -0.001909929775336472
0.005419216532576859 0.00285301983824083 -0.001868579582141138
0.005437657397888887 0.002832180678631489 -0.001823649462602831
0.00545319637691912 0.002802206922853116 -0.001776759888688715
0.005467865094714541 0.002766291194409075 -0.001729282181631869
0.005483571890763315 0.002727052666024705 -0.001682314829780522
0.005502142511693188 0.002686582096631598 -0.001636697033600238
0.005525340338329119 0.002646496600021863 -0.001593055469729658
0.005554888122467621 0.00260798684130385 -0.001551828116207784
0.005592498588675699 0.00257184979230332 -0.001513275552476681
0.00563990694266803 0.002538506961999757 -0.001477487089436046
0.005698903236246654 0.00250801714250854 -0.001444389060479633
0.00577136681713503 0.002480073974463592 -0.001413742532476873
0.005859303662010554 0.002453995869717671 -0.001385139745547035
0.00596488629441403 0.002428700969988522 -0.001357989562637872
0.006090496925369775 0.002402671545782688 -0.001331501781519521
0.006238775473348703 0.00237390188023952 -0.001304660841473724
0.006412671933732748 0.002339834139063837 -0.001276199551877569
0.0066155002471759 0.002297269374503003 -0.001244552392866964
0.006850998244235761 0.002242266674111288 -0.00120779885606247
0.007123405687650226 0.00217002457600467 -0.001163609554728418
0.007437549780620869 0.002074731158464639 -0.001109207722985989
0.007798908629279292 0.001949361695242446 -0.001041257070048527
0.008213681397042845 0.001785469441720699 -0.0009556831295698376
0.008688932635154386 0.00157298237081263 -0.0008475855220341068
0.009232754201731754 0.001299926118177085 -0.0007112588728403282
0.009854327427109059 0.000952011784308643 -0.000539984390794298
0.01056397254890788 0.000512227244323776 -0.0003255952200236786
0.01137333201120698 -3.951466768950635e-05 -5.824054280504571e-05
0.01229558823047657 -0.0007268208893532828 0.0002736449274535475
0.01334559640454309 -0.00157741255836137 0.0006835674303724325
0.01453997369486163 -0.002623771482025366 0.001187367507399401
0.01589713783732684 -0.00390384408689178 0.001803710024723905
0.01743730285001307 -0.005461749344748992 0.002554671462500022
0.01918247543843567 -0.007348438466418294 0.003466242635049822
0.02115635313892022 -0.009622353402501511 0.004568763686401149
0.02338404782361014 -0.0123500556555215 0.005897380605687553
0.02589158461805906 -0.0156067683159373 0.00749243650096498
0.02870504695380771 -0.01947677884337714 0.009399998458358717
0.0318492956699002 -0.0240535291666089 0.01167244230844311
0.03534616382621369 -0.02943929258688177 0.01436884829663134
0.03921203298946396 -0.03574430185150255 0.01755515120556463
0.04345471902877188 -0.04308518398293852 0.02130389408607547
0.04806958761743132 -0.05158262524263157 0.02569340656286536
0.05303499119770475 -0.0613581954802028 0.03080617313537902
0.05830721896941142 -0.07253037955932869 0.03672630459494582
0.06381539450177794 -0.08520988673504221 0.04353603519469638
0.06945704525399499 -0.09949442518513882 0.05131109750634525
0.07509527828136867 -0.1154631506981085 0.06011529405865978
0.08055863906280762 -0.1331708204161134 0.06999459463979948
0.08564451083449486 -0.1526413673113942 0.08097143623945456
0.09012638547528132 -0.1738596353811796 0.09304014549548133
0.09376437994295611 -0.1967582866788006 0.1061643309358047
0.09631775341059821 -0.2211931622053787 0.1202768198493135
0.09755931395390777 -0.2468921047556574 0.1352822359483466
0.09729973532409519 -0.2733408985108679 0.1510624828056544
0.09546376474797776 -0.2995064999954113 0.1674906968143415
0.09241282489499596 -0.3230710958396222 0.184494418914301
0.09058096785177144 -0.3378264543153474 0.2024793317536376
0.1059358837787268 -0.3213738237696335 0.226794057476872
0.3332517343225058 -0.1328672158926599 0.3584984928502414
0.878420476044712 -0.188205982873464 -0.2399441938854391
0.3096187888467621 -0.1714977697422004 -0.005642510349952296
0.1561872384814867 -0.1426655281387853 0.01941182789169424
0.09146917088684345 -0.1194015457403583 0.02336591886927677
0.05766375489051542 -0.1011106598770859 0.02306124664830123
0.03769615099693724 -0.08624366791284725 0.02153975238182738
0.02501238731556465 -0.07385098971388156 0.01963361338559473
0.01661327111978752 -0.06337269814976912 0.01763646598463391
0.01093524863958988 -0.05444544459981704 0.01567355876279262
0.007077645242359182 -0.04680729605073911 0.01380567494960908
0.004480624415793775 -0.04025466362256962 0.01206370109679891
0.002775775129774252 -0.03462231596642802 0.01046232130080527
0.001710210125110418 -0.02977321521052927 0.00900642882823389
0.001104901340534394 -0.02559255999558663 0.007694731776060884
0.0008302261830238805 -0.02198373235041186 0.006521982289158429
0.0007908133448283538 -0.0188652089657438 0.00548042683495611
0.000915714497188961 -0.01616806731707755 0.00456086849121174
0.001151778100959858 -0.01383390777995726 0.003753394384659102
0.001459068677224751 -0.01181311851017751 0.003047904941151778
0.001807616608718486 -0.01006342988963431 0.002434531506190083
0.002175051550065186 -0.00854871216928778 0.001903982696457449
0.002544875657021434 -0.007237990377346899 0.001447641951247657
0.002905165162314035 -0.006104626365016286 0.001057666069075358
0.003247573977729916 -0.005125644452636314 0.0007269860526033066
0.003566537418739367 -0.004281164384332949 0.0004490250731265497
0.003858649663317692 -0.00355392265082056 0.0002175566661787819
0.004122151108000839 -0.002928864150483617 2.662550377171531e-05
0.004356474119969968 -0.002392804058312591 -0.0001294181468331791
0.004561939677794814 -0.00193415676010027 -0.0002557750420811692
0.004739545442586429 -0.001542726401826174 -0.0003570323149220619
0.004890817291783573 -0.001209549300075333 -0.0004369056970733085
0.00501772730548545 -0.0009267666564692474 -0.0004983504537269344
0.005122548015722439 -0.0006874954981484392 -0.0005439964461292785
0.005207694564020003 -0.0004856996606691353 -0.0005763775439918755
0.005275597088840948 -0.0003160688793252919 -0.0005980235096904139
0.005328571691696241 -0.0001739201662509776 -0.0006112470130854044
0.00536885130562144 -5.514546971141059e-05 -0.000617698315379405
0.005398711609406562 4.382478518223337e-05 -0.0006185153020382865
0.005420400202941844 0.0001260846614489408 -0.0006148783561206634
0.00543597916432495 0.0001943274765083838 -0.0006080296724010729
0.005447344554706855 0.0002508905580101636 -0.0005989316669099575
0.005456322646918091 0.0002977834943900651 -0.0005882581812994549
0.005464671273463896 0.0003367175840396212 -0.0005765910515683308
0.00547404603148558 0.0003691438313009097 -0.0005644658226819521
0.005486015258816705 0.00039627939328675 -0.0005523086314336408
0.005502094766095879 0.0004191293564487445 -0.0005404386949780642
0.005523767559356453 0.0004385017825626864 -0.0005290970179893273
0.005552499289006766 0.0004550264386465221 -0.0005184646318768222
0.005589760838215261 0.0004691622893634016 -0.0005086558939124717
0.005637054552412467 0.0004812077778612943 -0.0004997271234935543
0.005695940704360664 0.0004913014627574657 -0.0004916737768310952
0.00576806538704835 0.0004994242965998325 -0.0004844383907770466
0.005855190762557728 0.0005053911702896823 -0.000477901476648906
0.005959227616477204 0.0005088465931878263 -0.0004718855679096282
0.006082270709106174 0.0005092460007552486 -0.0004661406434969926
0.006226637968219096 0.0005058410110033346 -0.0004603458184649515
0.006394912460043791 0.0004976508288736084 -0.0004540939117517119
0.006589985596699459 0.0004834350829923112 -0.0004468844136140453
0.006815107328272139 0.0004616512928817848 -0.0004380845829321297
0.007073950301407983 0.0004304149659063325 -0.0004269274364917973
0.007370673217637703 0.0003874382820878435 -0.0004125183399912926
0.007709966842639776 0.0003299704588718148 -0.0003937996210291426
0.008097120935765685 0.0002547199582634048 -0.0003694047983259117
0.008538149628080256 0.0001577741002503722 -0.0003376498983610015
0.009039900126643649 3.449245292601772e-05 -0.0002966772559845812
0.009610080905886852 -0.0001206016675260039 -0.0002444050549328656
0.01025732414268069 -0.0003139527822410404 -0.0001781508457047404
0.01099135903306682 -0.0005531025808167071 -9.450272488008e-05
0.01182317169397534 -0.0008468406975469114 1.051559258854066e-05
0.01276509222845504 -0.00120535765258638 0.0001414156253659495
0.01383086255416642 -0.001640419792328054 0.0003034280255815534
0.0150356714007633 -0.002165529254640896 0.0005027522834693068
0.01639617948101371 -0.002796077048402532 0.0007469476752275656
0.01793055202322716 -0.003549449420613031 0.001045194529049805
0.0196583964277183 -0.004445094461140896 0.00140845265657278
0.02160055705221878 -0.005504509943529742 0.001849606080747418
0.02377872179773996 -0.006751149535146558 0.002383575771522294
0.02621474023008119 -0.008210188300080336 0.003027615618168212
0.02892958890135457 -0.009908138295534741 0.003801813988088462
0.03194186954578185 -0.01187225564104682 0.004729511445392996
0.03526574680342878 -0.01412973631809604 0.005837690075096199
0.03890821907405917 -0.01670669019913356 0.007157184294909296
0.04286559963945736 -0.01962695139697589 0.008722603064880008
0.04711925283430058 -0.02291079078570504 0.01057174610474158
0.05163071853452226 -0.02657369757811652 0.01274446021237347
0.05633663372280301 -0.03062536715662906 0.01528080850940816
0.06114419931443325 -0.03506905208229339 0.01821832773603331
0.06592829426136092 -0.03990126526115235 0.02158853827354457
0.07053169346651443 -0.04511150471341114 0.02541286086566237
0.07476997497437816 -0.05068107857374431 0.02969841158763571
0.07844275537838051 -0.05657906383409683 0.03443454259396471
0.08135300368701105 -0.06275174489433698 0.03959108814009169
0.08333806399638069 -0.06909878702208022 0.04511952312002755
0.08432374463119005 -0.07542286617849778 0.05095866332431442
0.08444042121053941 -0.08132351280829377 0.05704924323955914
0.08433774326583632 -0.08596270186155218 0.06337562027060885
0.08622560901982645 -0.08750425912663186 0.0701272779618167
0.09809105634513023 -0.08167748083196953 0.07858361564317839
0.156155876745774 -0.05855243585903784 0.09881048476280602
0.5171891556796145 -0.007051686556416148 0.2715187980426738
0.854467708300215 -0.10314432534412 -0.2460937610826828
0.3233574941770921 -0.1126979350927252 -0.01622739833086825
0.1748644670716982 -0.1036520612394247 0.01089209366901759
0.108169396147338 -0.09068313211275834 0.0166624585621283
0.07176431662807865 -0.07824677704638462 0.01767612445117177
0.04956899737275081 -0.06730956573265597 0.01714296217910983
0.03506167599953119 -0.0579025505430285 0.01601068298960872
0.02515809660400733 -0.04985527480367214 0.01463751369952394
0.01822379063386717 -0.04297686942580285 0.01318664210503324
0.01330871719143009 -0.03709453031588281 0.01174356986504156
0.009817646932009231 -0.0320586877173944 0.01035680332001085
0.007355050433879902 -0.02774139221131762 0.009054298552139869
0.005646149740635311 -0.02403375703638086 0.007851230616494597
0.004493738568193225 -0.02084350164587587 0.006754368936027338
0.003752931407488968 -0.01809270974539441 0.005764831746192328
0.003315520268529348 -0.01571578176197831 0.004879917284101729
0.003099784357074635 -0.01365759659179129 0.004094466956330237
0.003043561262599044 -0.0118718688779101 0.003401824507164627
0.003099397094569979 -0.0103197180725616 0.002794553203238117
0.003231058367005996 -0.008968439465661827 0.002264987254850435
0.003410955855895381 -0.007790458318963535 0.001805692729436426
0.003618238541574977 -0.006762462573061848 0.001409639552114037
0.00383734570544412 -0.005864675856886696 0.001070358051640326
0.004056889074097832 -0.005080255268743637 0.0007819741143122445
0.004268759234521396 -0.004394791377384235 0.0005389608590830872
0.004467421355482107 -0.003795893349379074 0.0003360086751084787
0.004649333687111558 -0.003272843761494289 0.0001679665916029403
0.004812428323853796 -0.002816319921044363 2.989520501592839e-05
0.004955746849120033 -0.002418170297459897 -8.276490785923936e-05
0.005079177915082961 -0.002071241372084943 -0.0001740182087265852
0.005183270974625923 -0.001769244047585533 -0.000247046380437714
0.005269137396956719 -0.001506646168279595 -0.0003043221392549836
0.005338300751412207 -0.001278572345019324 -0.000348046736689212
0.005392531222742154 -0.001080717644682526 -0.000380381170315152
0.00543370342917093 -0.0009092684143415809 -0.0004035320085523033
0.005463640871680104 -0.0007608421278413973 -0.0004195236244396588
0.005484122233125222 -0.0006324458819742049 -0.0004297447710886635
0.005497010388163032 -0.0005214461573205317 -0.0004351011524474453
0.005504195180384393 -0.0004255259815975418 -0.0004365805980848666
0.005507427370874281 -0.0003426491701683549 -0.0004352614678742185
0.005508319724722886 -0.0002710298169515222 -0.000431967483686172
0.005508438950566941 -0.0002091143880460925 -0.0004272504425314618
0.005509310585376283 -0.0001555581814191142 -0.0004215963776027465
0.005512382595693625 -0.0001092084712906706 -0.0004154602183360324
0.005519034368800696 -6.908328751197544e-05 -0.0004092099954319609
0.005530607779149352 -3.436322171631455e-05 -0.0004031161018699761
0.005548424940605071 -4.375845747465824e-06 -0.0003973921335385544
0.005573800891710324 2.140960964388198e-05 -0.0003921983660053416
0.005608063029969102 4.339312941123878e-05 -0.0003876494932112798
0.00565257420827259 6.184301204007105e-05 -0.000383806702955269
0.005708756213610298 7.690364242873257e-05 -0.0003806923700555232
0.005778114396544691 8.858817773219586e-05 -0.0003782800170655466
0.005862264514771179 9.678065497962641e-05 -0.0003765056235657648
0.005962961559306017 0.0001012240512425867 -0.0003752525496789546
0.006082131129113384 0.0001015158018967911 -0.0003743601087687291
0.006221904267098807 9.708779959210237e-05 -0.0003736052664187753
0.00638465471689452 8.71965349449719e-05 -0.0003727139051829066
0.006573036738688382 7.089394292247254e-05 -0.0003713341855066479
0.006790029277620012 4.70076501113272e-05 -0.0003690250902593484
0.007038994001282037 1.410313086795297e-05 -0.000365233205115227
0.007323732009367051 -2.954548338895789e-05 -0.0003593366541900309
0.007648521181908155 -8.6005176749799e-05 -0.0003505966696072865
0.008018173869534654 -0.0001577285048751017 -0.0003380358386286302
0.008438156031574249 -0.0002476199593097535 -0.0003204008689152561
0.008914688604184141 -0.0003590847446892548 -0.000296368286482362
0.009454761779766072 -0.0004961011304316411 -0.0002645074852583559
0.01006618653177009 -0.0006632989035704877 -0.0002229180014165234
0.01075776942418767 -0.0008660523111169518 -0.000169055018436534
0.0115394730409629 -0.001110542550723666 -9.996647223543244e-05
0.01242249606754082 -0.001403838852212812 -1.235459672024048e-05
0.01341934267824423 -0.001753965655695753 9.755456863386093e-05
0.01454387474547823 -0.002169967962660114 0.0002342679647863602
0.01581136895829465 -0.002661941103711168 0.0004033904193183797
0.01723860150722216 -0.003241027404837932 0.0006119109358670506
0.01884385422613503 -0.003919328028222753 0.0008683055698506897
0.02064679541336722 -0.004709752340476897 0.001182674861901545
0.02266820076716924 -0.005625747992426669 0.001566818411037927
0.02492941354991148 -0.006680911380099668 0.0020345638075489
0.02745148092636529 -0.007888437721566433 0.002602308850775438
0.03025384387229342 -0.009260399265388864 0.003289548680496161
0.03335246412091624 -0.01080682623162616 0.004119375641224866
0.03675725056037361 -0.01253463335770594 0.005118875828583797
0.0404686137310938 -0.01444642951599839 0.006319221281385687
0.044473140614417 -0.01653933435285411 0.00775530244632225
0.04873847875308703 -0.01880396914980953 0.009464740870306135
0.05320782382126688 -0.02122382769518732 0.01148616882874522
0.05779483732206999 -0.0237752058139874 0.01385642917086701
0.06238031241193775 -0.02642777550805197 0.01660684366241132
0.06681250841971081 -0.02914553003004757 0.01975861858544464
0.07091351749019072 -0.03188731296544894 0.02331792054766908
0.07449454701903266 -0.0346051496845548 0.02727159810839491
0.07738382812179224 -0.03723726173081697 0.03158481735430683
0.07947423631657866 -0.03969052652169566 0.03620226672602302
0.08080904889378007 -0.04180370514156275 0.04105538306514637
0.0817609710728978 -0.04327641349170829 0.0460817480613251
0.08347875369051712 -0.04353838837686864 0.05128079020089842
0.08920306188839575 -0.04153002544840709 0.05692050661456698
0.1088834847759664 -0.0354776293449067 0.06458082062329508
0.1802493785906696 -0.02360663653716649 0.08526954516536998
0.5417831990108325 -0.01035995059602114 0.2582672380383033
0.8204928453574235 -0.0685877223851734 -0.2441032052968555
0.3207233151314913 -0.08650394891808469 -0.02206074255710792
0.1826661364570562 -0.08645145544444185 0.005493666005099925
0.1186727858737987 -0.0796716035342544 0.01253733876040244
0.08216561707120468 -0.07090165609570734 0.01468020535122952
0.05900100804224334 -0.06211599716330226 0.01500341879407395
0.04334058146013593 -0.05403901501033691 0.01449369138783282
0.0323268185693622 -0.04687602666426952 0.01356822590742532
0.02439390086668299 -0.04062872718288696 0.01243889433580459
0.01860580577858448 -0.03522387338913079 0.01122704394732271
0.01436218174022476 -0.03056531784217857 0.01000688431639138
0.01125583659077852 -0.02655522388813252 0.008824752194953552
0.008998574284043125 -0.02310262064027674 0.007708986590641792
0.007379978830448486 -0.02012650758449878 0.006675789159016269
0.00624299822550312 -0.01755650009400313 0.005733020983268256
0.005468626167566455 -0.0153323423364451 0.004882786695964638
0.004965782499725027 -0.01340293790567238 0.004123329273994993
0.004664324200550662 -0.01172520460382446 0.003450393743317825
0.004510068724392886 -0.01026292942690986 0.002858225196768335
0.004461154260654748 -0.008985708407350461 0.002340334969704634
0.004485308303119879 -0.007867994973739816 0.001890108712678389
0.004557794729936632 -0.006888290076129741 0.001501097043370975
0.004659836211430582 -0.006028445286018219 0.00116723574455837
0.004777385269011173 -0.005273080783965621 0.000882943237225795
0.004900136614601582 -0.004609097810583678 0.0006429050050996689
0.005020741906539336 -0.004025277129311356 0.0004419705781942087
0.005134159920484926 -0.003511944432314219 0.0002751033874600465
0.005237076414480199 -0.003060704748505966 0.0001374566765729868
0.00532748503112348 -0.002664228395731158 2.4549023107985e-05
0.005404380845708626 -0.002316084784392333 -6.754972378917755e-05
0.00546754144890972 -0.002010614345834534 -0.0001419534393524223
0.005517409026999324 -0.001742824547109002 -0.0002010670065616756
0.005554929204266142 -0.001508298341327614 -0.0002470255474301829
0.005581373518471645 -0.001303115972531717 -0.0002819275887996781
0.005598183228026092 -0.001123790277622108 -0.000307921745113479
0.005606796624872501 -0.0009672125835593883 -0.0003269793194861739
0.005608641375450533 -0.0008306198211279026 -0.0003404386549884573
0.005605263208548985 -0.0007115636183992162 -0.0003491604976669401
0.005598271858934981 -0.0006078780431314845 -0.0003540879018813473
0.005589168631770934 -0.0005176455828955689 -0.00035626382923029
0.00557933805800873 -0.0004391784025000131 -0.0003564781489833343
0.005570137514739194 -0.0003709972165342914 -0.0003552589244974584
0.00556290238254775 -0.0003118181038604537 -0.0003530663505055211
0.005558907391527309 -0.000260531049662118 -0.0003503416165144787
0.005559372021912259 -0.0002161904357922624 -0.0003474360656451733
0.005565489383228096 -0.0001779999127221964 -0.0003446170090151183
0.005578442109674725 -0.0001453085466004298 -0.0003420897525746849
0.005599413041137927 -0.0001175964658377795 -0.0003400215629103669
0.005629602255444287 -9.447644723726065e-05 -0.000338527428332458
0.005670247967685843 -7.568385886605328e-05 -0.0003376860227910377
0.005722647585287614 -6.108187890747372e-05 -0.0003375292829413535
0.005788179925449141 -5.065596673885196e-05 -0.0003380597343044004
0.005868329319706627 -4.452531201953524e-05 -0.0003392339287107302
0.005964711603385909 -4.294008194394871e-05 -0.0003409780535247436
0.006079102332365824 -4.629987912082345e-05 -0.0003431660819875907
0.006213468403145638 -5.515707096313923e-05 -0.000345635180224112
0.006370001621785209 -7.024068973912391e-05 -0.000348165163247485
0.006551152086547827 -9.246719131311083e-05 -0.0003504889325955706
0.006759667853523174 -0.0001229742396563287 -0.0003522459758910389
0.006998649542359761 -0.0001631369145704904 -0.0003529972751223144
0.007271602351085186 -0.0002146091664137152 -0.0003522392490763959
0.007582464547336013 -0.0002793515397956509 -0.0003494013158719918
0.007935658494936023 -0.0003596886096493766 -0.0003436800094611341
0.008336211540088767 -0.000458345181527013 -0.0003340359279138824
0.008789854905224452 -0.0005784997394421669 -0.0003193852688695738
0.00930302110506467 -0.0007238293074730881 -0.0002986299115275675
0.009882887207954263 -0.0008985972082324732 -0.0002702375229379136
0.01053756339256365 -0.001107706163071427 -0.000232084488532554
0.0112762634851674 -0.00135675407434902 -0.0001816840394322423
0.01210938308627164 -0.001652069995237839 -0.0001163264561773959
0.01304857693111493 -0.002000771887452185 -3.292340890599847e-05
0.01410683291869391 -0.002410783820640352 7.220958860601844e-05
0.01529856811347158 -0.002890849533258388 0.0002037695806781266
0.01663977680645295 -0.003450466087367197 0.0003677300273046758
0.01814811437900488 -0.004099764990464769 0.0005714668618880382
0.01984287307946375 -0.004849288570099542 0.0008238530608848509
0.02174482378475427 -0.005709678148096401 0.001135371240990326
0.02387582004131329 -0.006691202020371626 0.001518443033651622
0.02625810563153255 -0.007803150836631361 0.001988072484392881
0.02891319410554325 -0.009053016124652959 0.002562438299755606
0.03186017936382844 -0.01044548517363254 0.003263552081340241
0.03511331011695623 -0.0119812262062968 0.00411779166911207
0.03867860079761291 -0.01365555577634895 0.005156192022291665
0.04254941764970788 -0.01545704895889831 0.006414232371674872
0.04670106365355042 -0.01736632454446427 0.007931013183071173
0.05108472367374803 -0.01935519180221603 0.009747578276505946
0.05562163317441816 -0.02138645820443161 0.01190403695688044
0.06019896351065659 -0.02341458099086047 0.01443548351278699
0.06466974408809703 -0.02538714492664226 0.01736677882963603
0.06885987988469158 -0.02724667654606755 0.02070665944500873
0.07258618214005763 -0.02893153173494801 0.02444231584142982
0.0756905042291149 -0.03037355588196616 0.02853590897164492
0.07809880287154972 -0.03148908207447079 0.03292515846056351
0.07992568188375514 -0.03215893709000311 0.03753105108852373
0.08168134004355121 -0.03219375791342624 0.04227996007659497
0.08475006586303555 -0.03128804604026912 0.04716678630647977
0.09269162698671528 -0.02899929509486494 0.05247916572128093
0.1155294694075088 -0.02491120939290009 0.05986510041876552
0.1891283705401082 -0.01950318904986931 0.08028365483468596
0.5412410685880585 -0.01735716017580001 0.249309403435654
0.7828487523364376 -0.05065460892087817 -0.2405926839871538
0.3115219310749576 -0.07199855016960213 -0.02744034808680376
0.1844234606331537 -0.07656087277760826 -0.0001113669818701774
0.1250317391886483 -0.073762787466765 0.007911715194447453
0.09002492623013167 -0.06773238442708097 0.01115802725849646
0.06691839171284153 -0.060626602488517 0.01242946907403595
0.05070664974436599 -0.05351824028850875 0.0126608389609981
0.03892737426339471 -0.04689215288406032 0.01228962919503865
0.03019491822888838 -0.04093131364667005 0.01156513737423208
0.02365161659243395 -0.03567072976132066 0.01064472322508711
0.01872760180294268 -0.03107675072672203 0.009632211101479007
0.01502362416352631 -0.02708713385756559 0.008596802274642103
0.01224896225154174 -0.02363104881056561 0.007583960204058887
0.01018611993374179 -0.02063881944371344 0.006622474708297589
0.008669366787824897 -0.0180463693129914 0.005729354300939205
0.007570899357546742 -0.01579690442537486 0.004913277476705498
0.006791432683486929 -0.01384119137542309 0.004177171706691222
0.006253513555489775 -0.01213712417925171 0.003520085788881696
0.005896624862990568 -0.0106489887695059 0.002938579653940854
0.005673515385807221 -0.009346630610518065 0.00242776130059589
0.005547383172670252 -0.008204629973491823 0.001982115259529473
0.005489715703326766 -0.007201557044641341 0.001595937313273918
0.005478604924402224 -0.006319308996286071 0.001263666637999697
0.005497418564137368 -0.005542540534651496 0.0009800541348642838
0.005533723065509056 -0.004858182744643749 0.0007400167600418332
0.005578418770239573 -0.004255042382543373 0.0005385558550058741
0.005625022495403424 -0.003723467240147651 0.0003707392483904891
0.005669027333162087 -0.003255079840443243 0.0002317877509276681
0.005707429772310757 -0.00284256166413092 0.0001172710029916231
0.005738380344177481 -0.002479486137882691 2.329275169573742e-05
0.005760932519059265 -0.00216018808323602 -5.323592442904562e-05
0.005774904065488087 -0.00187966113567953 -0.0001146969690497235
0.005780702717507 -0.001633463807872544 -0.0001631938917430499
0.005779135009854257 -0.001417647227725259 -0.0002007899935264918
0.005771236764861628 -0.001228688443721832 -0.0002295978009360389
0.005758085394713119 -0.001063441626764915 -0.0002515570744376445
0.005740779563791262 -0.0009191013713817542 -0.0002679863643686402
0.005720566482926899 -0.0007931787520590937 -0.0002797232619959275
0.005698790817334543 -0.0006834637640982365 -0.0002876847790399955
0.005676716092905119 -0.0005879992555385531 -0.0002928850545406293
0.005655507824712821 -0.000505055279607572 -0.0002960993989100832
0.005636321066950259 -0.0004331176168013534 -0.0002978379445651124
0.005620306377681232 -0.0003708656853576744 -0.0002985515739925287
0.00560856876171321 -0.000317161781842559 -0.0002986654037632081
0.005602169938675797 -0.0002710308645711893 -0.0002985292473918308
0.005602155098990552 -0.0002316578060257453 -0.0002984007980082773
0.005609567438945923 -0.0001983710402372154 -0.0002984913758111463
0.005625456770544308 -0.0001706420031157959 -0.0002989636857815065
0.005650894541069488 -0.0001480724753036698 -0.0002999465406250706
0.00568699250581348 -0.0001303998747245179 -0.0003015201021354263
0.005734921734357096 -0.0001174865444030125 -0.0003037386363079729
0.005795932407738955 -0.0001093310588448525 -0.0003066131964809399
0.005871375516326331 -0.0001060621232907169 -0.0003101325575068161
0.005962726062759627 -0.0001079540542592007 -0.000314240583163333
0.006071608501802086 -0.0001154261235375605 -0.0003188557803365972
0.00619982533609701 -0.0001290653040770426 -0.0003238454173765914
0.006349387226599669 -0.0001496294793854755 -0.000329050360247473
0.006522542146236997 -0.0001780788359974973 -0.0003342517419442179
0.006721811450704486 -0.0002155875512696559 -0.0003391720695745475
0.006950041973206887 -0.0002635806365698179 -0.0003434446479321173
0.00721045275567779 -0.000323751202449598 -0.0003466815528720166
0.007506654462896144 -0.0003981108718355246 -0.0003484254170581643