# OOMMF: rectangular mesh v1.0
# Segment count: 1
# Begin: Segment
# Begin: Header
# Title: 
# Desc: time = 2.2639552447318884e-10
# Desc: stepsize = 3.1948527814406856e-13
# Desc: step = 520
# meshunit: m
# valueunit: (none)
# valuemultiplier: 218608.15966767
# xmin: 0
# ymin: 0
# zmin: 0
# xmax: 4e-07
# ymax: 1e-07
# zmax: 4e-09
# ValueRangeMaxMag: 1
# ValueRangeMinMag: 0.003867353930216421
# meshtype: rectangular
# xbase: 2e-09
# ybase: 2e-09
# zbase: 1e-09
# xstepsize: 4e-09
# ystepsize: 4e-09
# zstepsize: 2e-09
# xnodes: 100
# ynodes: 25
# znodes: 2
# End: Header
# Begin: Data Text
0.8314970942532395 -0.537537869054424 -0.1399207543162654
0.2492130013262623 -0.3675016460329225 0.06873473698566268
0.1169549911583168 -0.2954333858303098 0.08324336241979186
0.06276392563259987 -0.2496419820853012 0.079814314708038
0.03475538769330996 -0.2141225337044709 0.07291554430744147
0.01860124128316468 -0.1844253698953379 0.0653025626406782
0.008776312047873802 -0.1589229958114067 0.0578118681472793
0.002683867361915058 -0.1368185687969926 0.05075579623070357
-0.001064880488510727 -0.1176019870585904 0.04425487899202065
-0.003282009177162668 -0.1008837267267958 0.03834547435498959
-0.004473533599855472 -0.08633991656325683 0.03302322386278105
-0.004969690215466714 -0.07369230328893304 0.02826306657086961
-0.004993436962223642 -0.062699376035582 0.02402951372339683
-0.004699138481455169 -0.05315104376778622 0.020282660617448
-0.004195699348167944 -0.04486456692592434 0.01698126056704544
-0.003560966795845511 -0.03768099807402776 0.01408447970077314
-0.002851053594678247 -0.03146195840166514 0.0115531789433805
-0.00210656821916335 -0.02608683716647125 0.009350464453867197
-0.001356836948247524 -0.02145033994430942 0.007441947363461364
-0.0006228326012474389 -0.01746033836123446 0.005795994010814095
8.072608989688159e-05 -0.01403608343735354 0.004383695381093817
0.0007438281203644895 -0.01110666326238447 0.003178723728709009
0.001360045610401871 -0.008609650062449565 0.002157026696908376
0.001925690811068 -0.006489967309106001 0.001296771301170497
0.002439137756490296 -0.004698947215017462 0.000578207987228387
0.002900354272166176 -0.003193550494128267 -1.664683995375941e-05
0.003310551291265887 -0.001935716421900478 -0.0005039270249125849
0.00367185422915776 -0.0008918224617708524 -0.0008980121725254562
0.003987045405258084 -3.223225382277274e-05 -0.001211879040887144
0.00425934900211435 0.0006691739430053162 -0.001457184058950264
0.004492243536965175 0.001235407005618345 -0.001644332971537264
0.004689322276412217 0.00168668754617513 -0.001782580902435402
0.00485419875134847 0.002040750706824186 -0.001880055252464405
0.004990470440573317 0.002313081797201298 -0.001943876960650259
0.005101659534947862 0.002517149138600633 -0.001980086180392451
0.005191133758328968 0.002664632202753929 -0.001993912540753431
0.005262079649978829 0.002765648558561916 -0.001989939279810489
0.005317479384515632 0.002828975470900112 -0.001972075966059112
0.005360122386673097 0.002862198507306553 -0.001943649370300553
0.005392629471589544 0.002871814750587859 -0.001907329624861463
0.005417472092630785 0.002863352677013921 -0.001865353000302318
0.005436985564047048 0.002841492826628419 -0.001819614663009968
0.005453343106319475 0.002810184771741608 -0.001771740345933191
0.00546856245845484 0.002772743777191223 -0.001723134398993676
0.005484554044344053 0.002731924469667933 -0.001674902481775652
0.005503185045806089 0.002689959415060358 -0.001627941830641388
0.005526287227069643 0.002648558194738521 -0.00158295861540129
0.005555626750678327 0.00260896862451689 -0.001540503676221753
0.00559293779582855 0.002572047654839929 -0.001500954272041281
0.005639984231674239 0.002538294655930203 -0.001464515872318072
0.005698606904427094 0.002507827200881154 -0.00143120753135803
0.0057707426740079 0.002480322418339767 -0.001400792705271083
0.005858441890654633 0.002455035860103864 -0.001372828726898344
0.005963898794539778 0.002430823672065474 -0.001346676714471942
0.006089516162862818 0.002406126753482673 -0.001321488938881611
0.006237990509379266 0.00237887539600275 -0.001296143314783843
0.006412334481511554 0.00234638164368973 -0.001269269209368205
0.006615889511072068 0.002305296675946776 -0.001239239423351144
0.00685239199889971 0.002251539684694336 -0.001204037808477287
0.007126086245748693 0.002180189233185493 -0.001161274554143492
0.007441809899645008 0.002085312108012876 -0.001108121263702901
0.007805042555670485 0.001959779756297612 -0.001041313656362663
0.008221989367357319 0.001795068115009824 -0.000956936856419416
0.008699674627243808 0.001581006935648485 -0.0008501685246594832
0.009246083482014212 0.00130551981892377 -0.0007152829356380586
0.009870313997436495 0.000954300797125965 -0.0005454514851475346
0.01058270556940906 0.0005104110246850317 -0.0003326295829718776
0.01139496423907096 -4.617020068498844e-05 -6.716907190608175e-05
0.01232026664786878 -0.0007390746231713063 0.0002624178738227511
0.01337341327755857 -0.001596110856027695 0.0006696630504892752
0.01457096228440493 -0.002649846129766883 0.001170727406951763
0.01593130827119205 -0.003938247953182121 0.00178462641891067
0.01747473862391226 -0.005505383796232928 0.002533566839433846
0.01922339162457116 -0.007402195179813599 0.00344338919939805
0.02120107728197894 -0.009687203414833966 0.004544203519724396
0.02343292163687886 -0.01242712272625125 0.005871076898671547
0.02594483109638327 -0.01569739891647132 0.007464337203160059
0.02876269469700952 -0.01958249865290555 0.009370177784203475
0.0319111067115569 -0.02417591891481996 0.01164130811751708
0.03541159324588516 -0.02957982761137311 0.01433691963141131
0.03928025416368569 -0.03590420825301706 0.01752285257626812
0.04352459843975773 -0.04326533901956265 0.02127158220393521
0.04813965244554606 -0.05178345601395175 0.02566126626695316
0.05310342004404478 -0.0615796218125912 0.03077419475611677
0.05837183411581274 -0.07277179495958185 0.03669430007269132
0.06387368905974601 -0.08547010456790259 0.04350368557999026
0.06950623401958059 -0.09977167950507639 0.05127788555528589
0.0751323947905649 -0.1157551519438835 0.06008032379852801
0.0805806750373613 -0.1334748055494988 0.06995670844662788
0.08564857840153153 -0.1529541926154025 0.08092922152969141
0.09010995032701465 -0.1741779091719103 0.0929918201214987
0.0937255311548468 -0.1970784656312843 0.1061080703577284
0.09625539337191108 -0.2215116792682718 0.1202108124806081
0.09747327314866107 -0.2472055372362615 0.1352045564649515
0.09719060560490703 -0.2736461801988913 0.1509713272446297
0.09533220603074939 -0.2998013170465859 0.1673842093627997
0.09225787949198976 -0.323354747458726 0.18437030164327
0.09039503894792016 -0.3381021596922109 0.2023346945102565
0.1056829925260806 -0.3216570153343485 0.2266222544121174
0.3326744812789227 -0.1332221065483916 0.3582244291510434
0.8777946608873959 -0.188378519272715 -0.2402696015292969
0.3093979920060198 -0.1718206182383152 -0.006218945660662638
0.1560699723745655 -0.1430210918897656 0.01888096523492531
0.09139044849306145 -0.1197416530669387 0.02290857712215665
0.05760185999889282 -0.1014192457099034 0.02267276976323335
0.03764208811733623 -0.08651734976507819 0.02121008503093365
0.02496213620138775 -0.07409134953894711 0.01935269609636788
0.01656506022429172 -0.06358311522448287 0.01739556659954098
0.01088833278037773 -0.05462972886703059 0.01546537351562994
0.007031741195050894 -0.04696909215392094 0.01362398327172677
0.004435641114303981 -0.0403972073272434 0.01190337840688941
0.002731655273976242 -0.03474835870590153 0.01031922637914094
0.001666902596393424 -0.02988503142076326 0.008877187079667385
0.001062373674502529 -0.02569199426598114 0.007576781732510935
0.0007884610661850513 -0.02207226498029833 0.006413421480963236
0.0007498312138601443 -0.01894402465740683 0.005379775556284083
0.0008755853360016583 -0.01623812075961038 0.004467038075980175
0.001112604408974476 -0.0138959875695274 0.003665651437756847
0.001420978905693037 -0.01186790476335014 0.002965825173839588
0.001770767883127411 -0.01011154411579602 0.00235804102914392
0.002139635856184943 -0.008590758445710873 0.00183326113246581
0.002511100538745005 -0.007274573476307584 0.001383017033233909
0.00287322672139881 -0.006136343537971357 0.0009992869625220966
0.003217620747682908 -0.005153054822395301 0.0006746251992639519
0.003538609204650983 -0.004304751985612911 0.0004022018867045319
0.003832650821244286 -0.003574071351007698 0.0001756111600896709
0.004097890242584516 -0.002945860847199413 -1.092070740047218e-05
0.00433375353484955 -0.002406874899229119 -0.000162530505475458
0.004540650112442031 -0.001945516461274054 -0.0002839864035876654
0.004719728036139596 -0.001551612880449116 -0.0003796816856034711
0.00487263756122721 -0.001216227052897757 -0.0004536142272930514
0.005001353133657232 -0.0009315024597833374 -0.0005093965703961327
0.005108045571513758 -0.0006905310892880046 -0.0005501912913208319
0.005195020082982755 -0.0004872479537759336 -0.0005787642734520973
0.005264650222328822 -0.0003163374537750371 -0.0005973453708355434
0.005319294760161845 -0.0001731451950394789 -0.0006078547197328894
0.005361266356659054 -5.359534954831991e-05 -0.0006120140154679799
0.005392784505591963 4.588408970479518e-05 -0.0006112570154970624
0.005415954041723232 0.0001284200574654056 -0.0006067731157103276
0.00543277724624519 0.0001967358716495153 -0.0005993874115717808
0.005445175833644941 0.0002531904800324198 -0.0005897722839351993
0.005455004386957471 0.0002998183175157466 -0.0005785153472893443
0.005464017731894948 0.0003383672095449659 -0.0005661670416816577
0.005473866830482382 0.0003703321374283242 -0.0005532527243690195
0.005486127715781935 0.0003969807390434275 -0.0005401591353560543
0.005502344214056478 0.0004193644840379344 -0.0005272282200174851
0.005524042119466703 0.0004383271777921289 -0.0005147649610563552
0.005552719286720849 0.0004545215792973382 -0.0005030616625092422
0.005589873438052149 0.000468428048955737 -0.0004923488827238542
0.005637034596781246 0.0004803644223508465 -0.0004827908560573704
0.005695787618229703 0.0004904825733163031 -0.0004744807223551968
0.005767801497263868 0.0004987583535142776 -0.0004673668759948628
0.005854869011410071 0.0005049892701136994 -0.0004613125933864148
0.005958929135953893 0.0005087973512564334 -0.0004560970916358601
0.006082096398734995 0.0005096189328060624 -0.0004514185032900575
0.006226720179539072 0.000506677157758505 -0.0004468557459184542
0.006395420389147067 0.0004989504624803281 -0.0004419287471910635
0.006591112622883202 0.0004851464932485912 -0.0004361144683020322
0.00681705432482247 0.0004636742295662853 -0.0004287178714498207
0.007076927114448309 0.000432602079688534 -0.0004189443085690271
0.00737490368377378 0.0003895994667427322 -0.0004058916551613827
0.007715687144903989 0.0003318728390044402 -0.0003886180943687479
0.008104577145444592 0.0002560938424644551 -0.0003659830636577177
0.008547545331229259 0.0001583163062828755 -0.0003364453172228152
0.009051356206488779 3.388083317972607e-05 -0.0002981746489646896
0.009623682106524357 -0.0001226948323934064 -0.0002489571888536133
0.01027319570609094 -0.0003178464347539387 -0.0001862221782843914
0.01100966510705067 -0.000559108050932903 -0.0001068021499473536
0.0118440327924334 -0.000855266791440735 -6.859289812298989e-06
0.01278856016022501 -0.001216524170894899 0.0001181242166449777
0.01385694815848988 -0.001654656941148012 0.0002737394577470331
0.01506439561710838 -0.002183170875383743 0.00046662281225919
0.01642764345659839 -0.002817451141958754 0.0007045098688597464
0.01796495508861179 -0.003574885932749411 0.0009964051597935349
0.01969600729160175 -0.004474937475844723 0.001352932011077104
0.02164162535153905 -0.005539132969780347 0.001786766644947918
0.02382337920610195 -0.00679095297735517 0.002312716308528011
0.02626297348423416 -0.008255585358198795 0.002948129578731989
0.0289811977655469 -0.009959518910249378 0.003713449862822202
0.03199643345229564 -0.01192994014405161 0.004632189352494588
0.03532263603794648 -0.01419392647522646 0.005731323938895833
0.03896655211091632 -0.01677743352537102 0.007041745608541663
0.04292419508922297 -0.0197041113645022 0.008598016200553364
0.04717659759262856 -0.02299403425369245 0.01043790391729123
0.05168494647132107 -0.02666249643610533 0.01260129729213196
0.05638553444293251 -0.03071902419158602 0.01512836807056395
0.06118523632563871 -0.03516674716741541 0.01805670576113332
0.06595868021344221 -0.04000212661585111 0.02141772284712596
0.0705485167960653 -0.04521469409950096 0.02523284094342527
0.07477035272062654 -0.05078588155824536 0.02950916770482044
0.07842408025709058 -0.05668496526184578 0.0342359007562939
0.08131323871155761 -0.06285847709855562 0.03938302606267294
0.0832759392882749 -0.06920634123947457 0.0449021619053095
0.08423886042564947 -0.07553148519721636 0.05073203914906169
0.08433300640567212 -0.08143370389769622 0.05681343100237601
0.08420773901776556 -0.08607535648303022 0.06313041259237044
0.08607041399718683 -0.08762105766999227 0.06987158558464174
0.09789890858700605 -0.08180191072698707 0.07831500334619176
0.1558798897450886 -0.05869150699495578 0.09852081766507886
0.5165697946757983 -0.007214236429524472 0.2711229902893337
0.8536523678850213 -0.1032306491311209 -0.2464385993089803
0.3230623654356891 -0.112887418135044 -0.01686505255185837
0.1747331903071997 -0.1038819924888384 0.01029413276623248
0.1081041270461924 -0.09091832252814946 0.01614168497519736
0.07172652546564218 -0.07846951080213267 0.01723055947843666
0.04954178193378521 -0.06751244327132908 0.01676290737585424
0.03503743688043223 -0.05808359324894365 0.01568563950419591
0.02513357506290177 -0.05001514973084046 0.01435805813438892
0.01819777705138985 -0.04311740490717597 0.01294474004646062
0.01328095733793594 -0.03721794243210722 0.01153231042203665
0.009788304546773418 -0.03216718774711741 0.01017043987985247
0.00732440843932796 -0.02783700004490917 0.008888153715299045
0.005614507664396512 -0.02411822825593343 0.007701479175216872
0.004461386838232859 -0.02091831661092833 0.006618081181345171
0.003720131166883116 -0.01815909346973092 0.005639810855405376
0.003282519809945198 -0.01577473935471825 0.004764461708406498
0.00306682998215576 -0.01370995255426097 0.003987322785000217
0.00301088250424295 -0.01191830896615966 0.003302126366056185
0.003067206483552278 -0.01036082719411647 0.002701770042923469
0.003199559758395476 -0.009004735235052469 0.002178966679563387
0.003380362604060894 -0.007822418545228681 0.001726537682468805
0.003588774343483367 -0.006790539065998613 0.001337599144090961
0.003809234863872479 -0.00588929197905271 0.00100550853053462
0.004030330141927289 -0.005101795748119127 0.0007240122621788759
0.004243863332789134 -0.004413588950603714 0.0004873245631884996
0.004444171545794942 -0.003812219612548599 0.0002899723855078641
0.00462760149270655 -0.003286913590553386 0.0001270061194600544
0.004792046532225772 -0.002828310782032954 -5.986680773622072e-06
0.004936605829781724 -0.002428246332598846 -0.0001131303227053408
0.005061304266141104 -0.002079569670471567 -0.0001982339334921812
0.005166822002584791 -0.001775997401684484 -0.0002647696128000978
0.005254290227442877 -0.001511994997950873 -0.0003158947095744115
0.005325141847409189 -0.001282675444038342 -0.0003543659650623444
0.005381029826916493 -0.001083720531197532 -0.0003825760937377943
0.005423750676885826 -0.0009113152373060893 -0.0004024187199505772
0.005455156249846612 -0.0007620889969442806 -0.0004155117815320932
0.005477116536213816 -0.0006330627998404743 -0.0004233067161912078
0.005491462552424689 -0.0005216021285481145 -0.0004269960456696396
0.00549995152461856 -0.0004253773778191208 -0.0004275608581354619
0.005504270989368469 -0.0003423359633511929 -0.0004256546916511205
0.005506058863437266 -0.0002706770252724575 -0.0004218051869736358
0.005506915864143819 -0.000208827616002419 -0.0004164783511585413
0.005508370895158279 -0.0001554210557629728 -0.0004101243323108371
0.005511872290901635 -0.0001092769589584327 -0.0004031853991177524
0.005518808649006291 -6.938472462029026e-05 -0.0003959874917104771
0.005530544611568053 -3.489518821840573e-05 -0.0003888315663567632
0.005548435688364862 -5.114061328615628e-06 -0.0003819936340032512
0.005573822801810386 2.050729997373596e-05 -0.0003757446337765694
0.005608058072777464 4.238026754624163e-05 -0.0003703015496936652
0.005652528759222253 6.078379162933907e-05 -0.000365832854874547
0.005708672558152822 7.586534430885078e-05 -0.0003624560311740411
0.005778006310436123 8.763710108553606e-05 -0.0003601593644505353
0.005862169194119977 9.59721099007267e-05 -0.0003588567936733254
0.005962943130821907 0.000100601227454673 -0.0003583899335402913
0.006082271534827841 0.0001011048455023717 -0.0003585429807157466
0.006222309067808157 9.68977566195018e-05 -0.000359007281930233
0.006385457066517265 8.720944099676657e-05 -0.0003594377843627349
0.006574390759178081 7.106329064553766e-05 -0.0003594684165194053
0.006792098756681653 4.725454690043003e-05 -0.0003585886590022241
0.007041953554721079 1.432167426446937e-05 -0.0003562287286880239
0.007327770649990697 -2.949236994743801e-05 -0.0003517568407668315
0.007653842595414043 -8.628190011388276e-05 -0.0003445538813681238
0.008024998373535319 -0.0001585250426402428 -0.0003338674210297293
0.008446670094020973 -0.0002491374180794452 -0.0003186154885913645
0.008925003058164372 -0.0003615345763169498 -0.0002975114258206036
0.009466959051708364 -0.0004997013983365421 -0.0002689868317021407
0.01008039818875963 -0.0006682711614420145 -0.0002312372384061224
0.01077416812022901 -0.0008726070916448484 -0.0001820003235462112
0.01155818034545532 -0.001118883677391255 -0.0001184882583359011
0.01244355647651477 -0.001414168640543464 -3.740782370832952e-05
0.01344275904229159 -0.001766496562943288 6.539829289390803e-05
0.01456966566311755 -0.002184920181039562 0.0001949054086596023
0.01583963870137274 -0.002679539607478765 0.000356936493742363
0.01726955032325533 -0.003261489799499806 0.0005582996714808046
0.01887774487741151 -0.003942868229446543 0.0008070999147982471
0.02068387102796303 -0.004736575676042713 0.001113179688290401
0.02270859396500433 -0.00565604912237104 0.001488223884401255
0.02497312923873577 -0.006714862820736403 0.001946162046706882
0.02749836790262578 -0.0079261754188836 0.002503758678108871
0.03030356904657257 -0.009301990837870087 0.003180701459820193
0.03340452092099298 -0.01085224095207159 0.004000119380940505
0.03681090740839169 -0.0125837096212889 0.004989173674460049
0.04052285507343468 -0.01449885750522219 0.006179000223473661
0.04452662012408264 -0.01659464516756286 0.007604470352943794
0.04878947585841906 -0.01886154894455882 0.009303279914076173
0.05325423030790569 -0.02128294919607907 0.01131418339247034
0.05783415251589098 -0.0238350881825369 0.01367410246542681
0.06240969825870007 -0.02648766321776455 0.0164142872803347
0.06682890521638292 -0.02920479252761449 0.01955597022825051
0.07091380416501791 -0.03194554540238046 0.02310532534761169
0.07447581062438563 -0.03466226530460195 0.02704906567046259
0.07734370030677526 -0.03729355211378662 0.03135250427032246
0.07941113506329237 -0.03974667298042831 0.03596046881147131
0.08072230187679054 -0.04186074637584205 0.04080430183056543
0.08165054438732255 -0.04333570557409711 0.04582159056589191
0.08334420835137832 -0.04360160952108492 0.05101143143586397
0.0890410157584498 -0.04159932461030383 0.05664082744536374
0.1086805947578847 -0.03555598857387986 0.06428805346349903
0.1799565055534554 -0.02369837738561744 0.08495448899494648
0.5411348605066135 -0.01047347822079652 0.2578385594641102
0.8195475614121843 -0.06863979849628044 -0.2444399061865103
0.3203668931177377 -0.0866325202734303 -0.02272132662093246
0.1825098488126664 -0.08661911645714936 0.004862265361607058
0.1186053784330448 -0.0798544863963002 0.01197939610749338
0.08213825742525792 -0.07108382844227627 0.0141976469111864
0.05899004346095388 -0.06228826609105816 0.01458857040850839
0.04333446213193945 -0.05419696681112888 0.01413693901240802
0.03232015522280868 -0.04701822180839337 0.01326038996845248
0.02438444619289575 -0.040755404227063 0.01217184848786505
0.01859289394304926 -0.03533611893975203 0.01099361763189294
0.01434591033169946 -0.0306645674765422 0.009801001348188617
0.01123660011952655 -0.02664297675201094 0.008641397914975757
0.008976861527670046 -0.02318029150756322 0.00754402559202005
0.007356290980065505 -0.02019535869291378 0.006526015707118444
0.006217799061679019 -0.01761761937451497 0.005596001598684084
0.005442342556693206 -0.01538664938984246 0.004756626901031253
0.004938807621589643 -0.0134512042487868 0.004006628991347163
0.004637000462879843 -0.01176808062337744 0.003342166248475035
0.004482690663548746 -0.01030097408330002 0.002757839855892185
0.004433980990856528 -0.009019414682623147 0.002247559478411869
0.004458589755358432 -0.007897811483960539 0.0018049736220681
0.004531786245183851 -0.006914631421962076 0.001423782710772882
0.004634798029750912 -0.006051691905811345 0.001097774585373638
0.004753559765361221 -0.005293573440892389 0.0008209958325699748
0.004877687274824185 -0.004627131459086409 0.0005878694225896274
0.004999706139559268 -0.004041096037911696 0.0003930847386767369
0.005114452844308403 -0.003525747026070996 0.0002318146598205107
0.005218555264401315 -0.003072658060749868 9.97341527385569e-05
0.005310047603078236 -0.002674484125588589 -7.21121757846129e-06
0.005388053267368129 -0.002324790768317386 -9.275747573465987e-05
0.005452481947989673 -0.002017917255128264 -0.0001603036187964604
0.005503802042379571 -0.001748866680167301 -0.000212952643906595
0.005542872856996463 -0.00151321213426398 -0.0002534098575216761
0.005570844143570587 -0.00130702471120883 -0.0002840048403330167
0.005589067641185276 -0.001126815071961433 -0.0003065639336928737
0.005599002772544322 -0.0009694832651965361 -0.0003226365770380086
0.005602174022856699 -0.0008322747257036921 -0.0003336072057252445
0.005600107154588992 -0.0007127417354618746 -0.0003406036327038125
0.00559428581727772 -0.0006087091806390338 -0.0003445541044689749
0.005586149330144887 -0.0005182496690701514 -0.0003460773351633654
0.005577109439317986 -0.0004396616085259719 -0.0003456726267128978
0.005568560778860357 -0.0003714503148346624 -0.0003437823970715736
0.005561844951155972 -0.0003123116511674244 -0.000340837386010035
0.005558239192702603 -0.0002611165081262183 -0.0003372641249674336
0.00555897317387774 -0.0002168965930065021 -0.0003333819327408769
0.005565260396470002 -0.0001788356764733803 -0.000329489841313697
0.005578311738556142 -0.0001462631217554453 -0.0003258622300256044
0.005599331055854398 -0.0001186467464323249 -0.0003227642562820135
0.005629539374647271 -9.55878482962475e-05 -0.0003204045782777129
0.005670195718091153 -7.681818062941309e-05 -0.0003189527794663936
0.005722609128372747 -6.219728021805045e-05 -0.0003185411352484295
0.005788164360018833 -5.171421157631231e-05 -0.0003191837415635862
0.005868363803550361 -4.549198573697917e-05 -0.0003208229595261805
0.005964846920217074 -4.379363213373442e-05 -0.0003233322287365019
0.006079405172334853 -4.703041553050511e-05 -0.0003265427132265754
0.006214025542454675 -5.577276342531667e-05 -0.0003302089084928548
0.006370922567380179 -7.076651718747218e-05 -0.0003340587022015014
0.006552564782743678 -9.295281181069626e-05 -0.000337804095266152
0.006761710369694631 -0.0001234898838694189 -0.0003410219170227543
0.007001470859737673 -0.0001637783064646239 -0.0003432480688537253
0.007275364988409487 -0.0002154941172484784 -0.0003439772072801164
0.007587348671283608 -0.0002806246447969649 -0.0003427405288355738
0.00794186967357554 -0.0003615081903814682 -0.0003389706016456503
0.008343928009968075 -0.0004608796803252155 -0.0003318065741387644
0.008799178397329717 -0.000581923295711889 -0.0003202224539817286
0.009314027660380817 -0.0007283299160500747 -0.0003029606687014614
0.009895713096306312 -0.0009043609421281921 -0.0002785888489662217
0.01055239246065003 -0.001114910440871877 -0.0002452878318953727
0.01129322266880282 -0.001365563630934905 -0.00020077440327586
0.01212851165549393 -0.001662653672256477 -0.0001423360819568957
0.01306986647385776 -0.002013307872360548 -6.649514988271409e-05
0.01413029442147938 -0.002425466895594309 3.094414811588298e-05
0.01532430933135441 -0.002907874413358448 0.0001549192269506411
0.01666800879682562 -0.003470018893473205 0.0003112357713055042
0.01817911276382779 -0.004122013270767922 0.000506858862330993
0.01987689787390203 -0.004874384232416287 0.0007503768512815227
0.02178203002214517 -0.005737749156995233 0.001052151940407456
0.02391624502370035 -0.006722350761726933 0.001424729464155052
0.02630165189695956 -0.007837434886937117 0.001883479311449861
0.0289596121252469 -0.009090427076897802 0.002446805494478589
0.03190907676582561 -0.01048591227496479 0.003136777993663508
0.03516409357065477 -0.01202443045692877 0.003979859521116591
0.03873040733892076 -0.01370114368389769 0.005007035163684334
0.04260105101240533 -0.01550446804296303 0.00625377079934124
0.04675092877104217 -0.0174148717971161 0.007759243871858806
0.05113078995071225 -0.01940405015680535 0.009564623975309085
0.05566140580511963 -0.02143475120059874 0.01171011357676742
0.06022951386700683 -0.02346145949173637 0.01423076933418988
0.06468781102751799 -0.02543189290044926 0.01715147840478019
0.06886203195258288 -0.02728883104277788 0.0204809940998002
0.07256910589867741 -0.02897099714923738 0.02420637822350578
0.07565138579513009 -0.03041069839408873 0.02828991116910087
0.07803563182151098 -0.03152476482830203 0.03266941741185136
0.07983741862263499 -0.03219449781883219 0.03726577125617177
0.08156765486931637 -0.03223094518886466 0.04200529696043736
0.08461023704355873 -0.03132895493607425 0.04688249839020728
0.09252185800779365 -0.02904636549739656 0.05218392571637916
0.1153156665063028 -0.02496737552008567 0.05955573295315069
0.1888195802096298 -0.01957251071968832 0.07995007034719642
0.5405586181188965 -0.01744963451844024 0.2488538802671431
0.7818131478603025 -0.05068906660176178 -0.2409131464962133
0.3111163377083454 -0.072088140779066 -0.02810814215807681
0.1842386300622756 -0.07668571955044881 -0.0007621129062012007
0.1249526997272405 -0.07390819520140256 0.007326770790418098
0.08999814596012591 -0.06788552603015258 0.01064487674926439
0.06691554783884346 -0.06077798115243385 0.01198338536296392
0.05071257887228278 -0.05366186304692128 0.01227401950873248
0.03893426295266914 -0.04702484385600796 0.01195385534695455
0.03019905230499461 -0.04105184467211511 0.01127268752860424
0.02365153130754404 -0.03577908205483494 0.01038849923875092
0.01872302714989337 -0.03117357736701332 0.009406017716988156
0.01501484684748215 -0.02717340391765839 0.008395418161905362
0.01223650779204973 -0.02370782967953342 0.007403014679367667
0.01017059760159506 -0.02070715307215685 0.006458531733816164
0.008651375567746622 -0.01810720711891054 0.005579761847768303
0.007551001664739093 -0.01585108473718689 0.004775946964773869
0.006770143057222038 -0.01388943857164361 0.0040505361177704
0.006231273187712377 -0.01218006266962517 0.003403017802300749
0.005873803549207923 -0.01068716356712787 0.002830325184506041
0.005650426731848511 -0.009380527760457169 0.002327989282969393
0.005524316672804033 -0.008234691905879893 0.001890770069329708
0.00546696168483083 -0.00722819197389471 0.001513128852282594
0.005456461232689959 -0.006342890675803255 0.001189385376975406
0.005476169688429106 -0.005563404224705052 0.0009139426150397378
0.005513579274800172 -0.004876620012036989 0.0006814491061048326
0.005559464943865896 -0.004271297688523676 0.0004867441633045181
0.005607212731018915 -0.003737741944209444 0.0003250982865494377
0.005652243229267586 -0.003267544113170452 0.0001922434304567981
0.005691580492613999 -0.002853367862861451 8.416031887423184e-05
0.005723496511115127 -0.002488778656694304 -2.85308860927996e-06
0.005747176345478786 -0.002168107688977159 -7.216303439538091e-05
0.005762467453347262 -0.001886342290368526 -0.0001268523706544952
0.005769693515942065 -0.001639032105559632 -0.0001696059938033186
0.005769535783760749 -0.001422218991335119 -0.0002027190049139439
0.005762931881495167 -0.001232378488201902 -0.0002279743030730439
0.005750974289711077 -0.001066370868055884 -0.000246874145510829
0.005734862152759297 -0.000921399336618573 -0.0002607564584839917
0.005715831982231113 -0.000794973689371205 -0.0002707041365251483
0.005695107630035902 -0.0006848770808583084 -0.0002776116157464972
0.005673892486711055 -0.0005891414292320575 -0.0002820803055123669
0.005653381963437985 -0.0005060256082674281 -0.0002845962104042083
0.005634771359464986 -0.0004339979909431444 -0.0002855921101453226
0.005619218745883676 -0.0003717214699436582 -0.0002854914446429633
0.005607831682664302 -0.0003180393848196037 -0.0002847160753678886
0.005601682100162235 -0.000271961922180827 -0.0002835848247232018
0.005601834496229689 -0.0002326557209519079 -0.0002823943950953142
0.005609357194617184 -0.0001994361912781472 -0.0002814171923001962
0.00562531713433121 -0.000171760635168615 -0.0002809121520962593
0.005650802263738421 -0.0001492248249844747 -0.0002810780380166782
0.005686941604657048 -0.0001315605451329339 -0.0002820802127285042
0.005734915410773134 -0.0001186318678050682 -0.0002840580814169927
0.005795976919476591 -0.0001104361790348062 -0.0002870458637217936
0.005871490776659478 -0.0001071085865875639 -0.0002910088096919156
0.005962951412314614 -0.0001089296132910869 -0.0002958470438511994
0.006071997045642587 -0.0001163340414447915 -0.0003014309548129559
0.006200448525419591 -0.0001299201860770375 -0.0003075691046951584
0.006350336616708514 -0.0001504644131806988 -0.0003140542305398387
0.006523925630139089 -0.0001789412337080457 -0.0003206663930075363
0.006723746210833601 -0.0002165466630632181 -0.0003270555394048022
0.006952654841007442 -0.0002647226335285332 -0.0003328405360212786
0.007213883129121728 -0.0003251879482921221 -0.0003376142339992681
0.007511063683041415 -0.0003999726674252233 -0.0003410254161924038