# OOMMF: rectangular mesh v1.0
# Segment count: 1
# Begin: Segment
# Begin: Header
# Title: 
# Desc: time = 1.7897778209638708e-10
# Desc: stepsize = 3.9223133052103396e-13
# Desc: step = 380
# meshunit: m
# valueunit: (none)
# valuemultiplier: 218593.1287628828
# xmin: 0
# ymin: 0
# zmin: 0
# xmax: 4e-07
# ymax: 1e-07
# zmax: 4e-09
# ValueRangeMaxMag: 0.9999999999999999
# ValueRangeMinMag: 0.003877290362211812
# meshtype: rectangular
# xbase: 2e-09
# ybase: 2e-09
# zbase: 1e-09
# xstepsize: 4e-09
# ystepsize: 4e-09
# zstepsize: 2e-09
# xnodes: 100
# ynodes: 25
# znodes: 2
# End: Header
# Begin: Data Text
0.8316561305186425 -0.5371435678611516 -0.1407988762211529
0.2492523999323397 -0.3670045806407365 0.06786229043618339
0.116983396054199 -0.2949680650595998 0.08246552007615629
0.06278996715449288 -0.2492272795247322 0.07913563126566164
0.03478076542047844 -0.2137583800963736 0.07232582381806119
0.01862637663040126 -0.1841070215330033 0.06478937526138911
0.008801189821299356 -0.1586447853708677 0.0573639353975788
0.002708288634201367 -0.1365750491675348 0.05036361602989435
-0.001041129510899295 -0.1173882776316344 0.0439106149736971
-0.003259061731730782 -0.1006956054209287 0.03804293675831321
-0.004451418981446053 -0.08617381271967717 0.03275749911710099
-0.004948321673746957 -0.07354525459492027 0.0280299610319127
-0.004972655709300043 -0.06256897297872809 0.02382529879500062
-0.004678808630840125 -0.05303534416335664 0.0201039494034223
-0.004175759414341354 -0.04476199540198177 0.01682506732512277
-0.003541413642752906 -0.03759030290473227 0.01394831767965637
-0.002831923375375442 -0.03138218172806725 0.0114351997306046
-0.002087927587443487 -0.02601721964112145 0.00924936835029218
-0.001338746575769899 -0.02139023866453761 0.00735665607577035
-0.0006053307205470929 -0.01740917605027401 0.005725504559172924
9.760780434635078e-05 -0.01399326295646862 0.004327033181354879
0.0007600919680038828 -0.01107157742657504 0.003134644758679573
0.001375729351716094 -0.0085817214204613 0.002124142097213155
0.001940793295091984 -0.006468626657191667 0.001273716140771556
0.002453640933915867 -0.004683659806063878 0.0005635134046666408
0.002914268450954247 -0.003183873498014924 -2.424756599074735e-05
0.003323857857567036 -0.001931275468156399 -0.0005054943735470841
0.003684479640988338 -0.0008922559968169939 -0.0008947328107484679
0.003998881759910015 -3.713033533350224e-05 -0.001204964562586254
0.004270253778595288 0.0006603062568822282 -0.00144767311797118
0.004502069886101415 0.001223101054842502 -0.001633250618374983
0.004697961913342184 0.001671482758815817 -0.001770834074127205
0.004861567133232365 0.002023190087661994 -0.001868302426237362
0.004996487609003438 0.002293702793930007 -0.001932689058281598
0.005106235338515203 0.002496499500547224 -0.001969901080467002
0.00519415625991502 0.002643311049309934 -0.001985008343193657
0.005263457306041381 0.002744297700009538 -0.00198245354271123
0.005317178839613019 0.002808232314599827 -0.001965894498842333
0.005358180462468677 0.002842685732421434 -0.001938523429830041
0.005389173702547391 0.002854116695316268 -0.001903106953094067
0.005412700956870921 0.002848020154033043 -0.001861941902346837
0.005431144335530621 0.002829035270654129 -0.001817026300278316
0.005446746255617989 0.002801000718480394 -0.00177008287885603
0.005461601192399549 0.002767090666989819 -0.001722465442750552
0.005477674269031313 0.002729855819708566 -0.001675338578326932
0.005496829255147979 0.00269129459987923 -0.001629616487875236
0.005520832123440261 0.002652943504542555 -0.001585892877781724
0.00555139085112074 0.002615881347222732 -0.001544681615808881
0.005590189845509403 0.002580812929823865 -0.001506194795410622
0.005638905670950032 0.002548083696287829 -0.001470477498067492
0.005699268105591983 0.002517686151732743 -0.001437506651144923
0.005773087689093922 0.002489307640279595 -0.001406951142327388
0.005862295550521607 0.002462273399575283 -0.001378454202937499
0.005969010023002432 0.002435558136497431 -0.001351445730234909
0.006095563126258609 0.002407737448481808 -0.001325088809948707
0.00624456626944458 0.002376897742596073 -0.00129846456855313
0.006418971769771167 0.002340609560306313 -0.001270249803201911
0.006622109981957224 0.00229577596949828 -0.001238854361839583
0.006857770246086838 0.002238541899697335 -0.001202385888361139
0.007130260809426085 0.002164174425992508 -0.001158411290009024
0.007444461803191289 0.002066857565501346 -0.001104118797685654
0.007805926031961448 0.001939572672908301 -0.001036157015828495
0.008220948366015014 0.001773860984939307 -0.0009504570377576875
0.008696649135400455 0.00155958008838967 -0.0008423342615108163
0.009241115908042162 0.001284671399370539 -0.0007062189400363937
0.009863489429588236 0.0009347945862813597 -0.0005353978902169724
0.01057410316127279 0.0004929681558830005 -0.0003220739138255004
0.01138466054741402 -6.084411818480676e-05 -5.682535976661303e-05
0.01230832953006232 -0.0007502745582667686 0.0002716484781140804
0.013359914682105 -0.001603104857762731 0.0006765995982521208
0.01455598997133992 -0.002651868953661931 0.001174037176514706
0.01591494699349957 -0.003934565038329871 0.001782825589038329
0.01745707911663315 -0.005495334780192807 0.002524989956630341
0.01920451010543466 -0.007385172130104568 0.003426539690680486
0.02118098512060121 -0.009662662803442796 0.004517651604987473
0.02341162131852888 -0.01239452834941541 0.005833167890241546
0.02592236994849794 -0.01565614550400592 0.007413377450190184
0.02873909120547055 -0.01953195432249552 0.009304365813489207
0.03188635123852818 -0.02411545816985551 0.01155859103180412
0.03538571563944096 -0.02950882742008953 0.01423557240729329
0.03925335502922317 -0.03582207194425728 0.01740153199608704
0.04349693847420231 -0.04317155079525124 0.02112910516664307
0.04811169274387279 -0.05167767456654186 0.02549692762811092
0.05307578779601721 -0.0614617491549154 0.03058771625504769
0.05834535513086483 -0.07264194279318643 0.03648556336865994
0.06384938311834204 -0.0853286020699606 0.04327269380800274
0.06948521390492358 -0.09961911130344274 0.05102485550563965
0.075115784645788 -0.1155923539098439 0.05980584220337906
0.08056958546976228 -0.1333028510918296 0.06966205830199622
0.08564411903439277 -0.1527743573392713 0.08061665403887702
0.09011323692543569 -0.1739916221635794 0.09266445821888072
0.09373765115168253 -0.1968873072290508 0.105769446170163
0.09627724955144956 -0.2213173865572266 0.1198647519141021
0.09750536225796372 -0.2470099472145585 0.1348548897467428
0.09723304501498507 -0.2734510704941692 0.1506212393009844
0.09538510495768894 -0.2996081047178466 0.1670361406129049
0.09232202255501158 -0.3231640444372087 0.1840260587294165
0.09047368631120103 -0.3379129269015862 0.2019959740260395
0.1057887649780842 -0.3214641634333373 0.2262967172018215
0.3328812826818889 -0.1330117688875358 0.3579905839949695
0.8781409474935343 -0.1882923953097313 -0.2411555402350934
0.3094627412734451 -0.1716682517126001 -0.007087374002089791
0.1560826485367397 -0.1428545547300748 0.01810332341067973
0.09139036751144675 -0.1195823650890461 0.02222758672707336
0.05759988362621744 -0.1012743813759129 0.02207935539655586
0.03764167121259195 -0.08638850835918024 0.02069251754598223
0.02496419125786163 -0.07397793950650694 0.01890018199036502
0.01656952373521718 -0.06348372395548373 0.01699894459287237
0.01089481573027229 -0.05454271010412156 0.01511705531704009
0.007039813697487643 -0.04689282713971341 0.01331801506852219
0.004444933911581709 -0.04033022352419404 0.01163506074248214
0.002741912337104859 -0.03468938071930764 0.01008447090617907
0.001677969233621456 -0.02983299146849914 0.008672235790994905
0.001074122177043663 -0.02564601449069344 0.007398122709915582
0.0008007323882528337 -0.02203162919207097 0.006257896499698748
0.0007624368105721673 -0.01890815559108968 0.005244717678706471
0.0008883367127522268 -0.01620655717115141 0.004350468108507819
0.001125330353047444 -0.01386835545357478 0.003566208666369601
0.001433552891063618 -0.01184389470648627 0.002882400625622298
0.001783125079293681 -0.01009089204518182 0.002289605974587299
0.002151740265059816 -0.008573222828312592 0.001778807086360651
0.00252294297176386 -0.007259922950692375 0.001341225424725079
0.002884830484732285 -0.00612435738105048 0.0009686501437589832
0.003228966605596202 -0.005143525318378839 0.0006536289887983443
0.003549641546037848 -0.004297488888759408 0.0003892113476543074
0.003843334199495938 -0.003568907953659281 0.0001692166352772355
0.004108178748196275 -0.002942652614066418 -1.191229513088e-05
0.004343580021759311 -0.002405487564856714 -0.0001594415369546407
0.004549941903779784 -0.001945809460631243 -0.0002781295610419817
0.004728377352449668 -0.001553428856726518 -0.0003721474190618592
0.004880514730563491 -0.001219392987415718 -0.000445445763707617
0.005008356780885594 -0.0009358355092718453 -0.0005014847497869079
0.005114093583545581 -0.0006958421528083659 -0.0005431456376090347
0.005200039933888478 -0.0004933404372841242 -0.0005730814163100998
0.005268575441180656 -0.0003230011172916803 -0.0005933468257186316
0.005322044457237152 -0.0001801493656012363 -0.0006056520599748529
0.005362764934845475 -6.069176494554144e-05 -0.0006115239742914511
0.005392994472990384 3.894770974795045e-05 -0.0006120919454959685
0.005414893885318572 0.000121887059624545 -0.0006083971155733455
0.00543054970308565 0.0001908319804517512 -0.0006013776830244553
0.005441950516391767 0.0002481190812954127 -0.0005918001861221269
0.005450977308410583 0.0002957545241188265 -0.0005804085936420283
0.005459426815734549 0.0003354449611496549 -0.0005678996053404493
0.005468997800742646 0.0003686284407653837 -0.0005548141062393774
0.00548129686276891 0.0003965015895110961 -0.0005416817297666567
0.005497873003745054 0.0004200411768155015 -0.000528936803910507
0.005520207229443119 0.000440026220392991 -0.0005168324966730637
0.005549748609786092 0.0004570551598820993 -0.0005056586869371786
0.005587948540209633 0.0004715587258688663 -0.0004955171569873467
0.005636259894613234 0.0004838106642039151 -0.0004864422326631214
0.0056962011299534 0.0004939337565908093 -0.0004784981883251904
0.005769370062594554 0.0005019008877545828 -0.0004715402348018726
0.005857472794332421 0.0005075316786553508 -0.0004654953422001929
0.005962388661642485 0.0005104842079421269 -0.0004601909206814021
0.006086174584638705 0.0005102390379374298 -0.0004553058573423793
0.006231129712318581 0.0005060778744466344 -0.0004505747366894048
0.006399842212526643 0.0004970559882274488 -0.0004454971359921597
0.006595210611664631 0.0004819657907197207 -0.0004394940076308416
0.006820525466317829 0.0004592959813217068 -0.0004319207909053174
0.007079504930171203 0.0004271827875499911 -0.0004218739524046458
0.00737634276047616 0.0003833516862125825 -0.0004083979514976217
0.007715797675653129 0.0003250550744322404 -0.000390405761358018
0.00810323543095615 0.0002489967116141931 -0.0003665579693739543
0.008544705409203303 0.000151247944912961 -0.0003354507726613002
0.009047053181747254 2.715328360772116e-05 -0.0002954483911057273
0.009617974971178559 -0.0001287805764867444 -0.0002445070286849396
0.01026613954555607 -0.0003230064465575428 -0.0001803716280036671
0.01100132435515704 -0.0005630733419021643 -0.0001001598245776747
0.01183447529380686 -0.0008577807005194716 -2.634047464672865e-07
0.01277786468334801 -0.001217336670539929 0.0001235197840105693
0.01384519479480096 -0.001653524982136063 0.0002765972315330599
0.01505163640366706 -0.00217986783758169 0.0004654211675823669
0.01641392914309786 -0.002811773066010153 0.0006975148927306574
0.01795032471628299 -0.003566651320699445 0.0009820281645060006
0.01968044973148594 -0.004463982774494664 0.001329636344301228
0.02162515169529162 -0.005525302834455877 0.001752773991710413
0.02380605050764043 -0.006774097667544101 0.002266191603594573
0.02624480143671275 -0.008235568665648795 0.002887105759010889
0.02896215990874276 -0.009936221437147693 0.003635701887900136
0.03197654405416514 -0.0119032617163049 0.004535896277232259
0.03530195586144966 -0.01416379682408114 0.005615128011385116
0.03894526247903382 -0.01674382784766405 0.006904477028760083
0.0429026408334193 -0.01966706577756256 0.008439014071214069
0.04715527792150171 -0.02295365782135168 0.01025693046351089
0.05166456651065806 -0.02661897282432978 0.01239819761469319
0.05636699386872925 -0.03067260399685998 0.01490303221851295
0.06116953101301311 -0.0351177367390303 0.01780916952708764
0.06594684097913513 -0.03995086539409604 0.02114833125431673
0.07054160084332373 -0.04516151353281175 0.0249426620551947
0.07476945437849689 -0.0507310627593557 0.02920034226431947
0.07843031618349884 -0.05662871448888842 0.03391152025765982
0.08132769133570431 -0.06280092058370267 0.03904658961883423
0.0832995008806008 -0.06914753645752937 0.04455740411460756
0.08427204516857303 -0.07547143269983227 0.0503825793168952
0.08437605156886291 -0.08137233047865627 0.0564620637437996
0.08426108013455409 -0.0860124404757617 0.06277902017428204
0.08613553246206247 -0.08755605555025099 0.0695213030485743
0.09798053138555421 -0.08173362713380601 0.07796695035082395
0.1559933332685216 -0.05861779761895169 0.09818387139016271
0.5167793394535001 -0.007133561806976259 0.2708887817902387
0.8540796464076705 -0.1031947687841915 -0.2473173217022739
0.3231608671767802 -0.1128057888196671 -0.01771802578605907
0.174752927306287 -0.1037807363663125 0.009524911713164818
0.1080987174765875 -0.09081318331627201 0.01546192733792773
0.07171421570936631 -0.07836874926504075 0.01663291625779291
0.04952953596375296 -0.06741976930073905 0.01623743868028012
0.03502779950115512 -0.05800025528143435 0.01522301433324225
0.02512720579625807 -0.04994113968816481 0.01395019763444337
0.01819455769040321 -0.04305211731028435 0.01258481595926095
0.01328050093651928 -0.03716052760210926 0.01121490316805647
0.009790169935678265 -0.03211673850242697 0.009891223230521164
0.007328213575651828 -0.02779264973480764 0.00864326410944825
0.00561995615174624 -0.02407919885278838 0.007487252917187492
0.004468216090495491 -0.0208839343814373 0.006431022879000842
0.003728059908296664 -0.01812878676502959 0.005476742735464129
0.003291250204006835 -0.01574803371149303 0.004622665258188962
0.003076083624009384 -0.01368646323328999 0.003864753419378841
0.003020420369283998 -0.01189772345585557 0.003197389413020999
0.003076850879410497 -0.01034288724890264 0.002613745355415639
0.003209211682410064 -0.008989224347782751 0.002106597570174739
0.003389969419230745 -0.007809146341164851 0.001668780810279473
0.003598317354672194 -0.006779326320476117 0.00129309512116536
0.003818726827028268 -0.005879966009150868 0.0009726682215900688
0.004039738717393463 -0.005094192850432553 0.0007012145384846743
0.004253114659208365 -0.004407559498469934 0.0004728396298359703
0.00445320892200751 -0.003807632572242508 0.0002823042856244397
0.004636363339759057 -0.00328365393100043 0.0001248852266072092
0.004800460865063272 -0.002826274175294042 -3.930773107192003e-06
0.004944604876271189 -0.002427334058618781 -0.0001082329319892239
0.005068790111009345 -0.002079681381921321 -0.0001916063010799546
0.005173674819838862 -0.001777025718417185 -0.0002574797347126648
0.005260416087573354 -0.001513824931088923 -0.0003088532747944637
0.005330464883849845 -0.001285185504217293 -0.000348193656509115
0.005385485569546268 -0.001086782639474504 -0.0003777722603343157
0.0054272850277993 -0.0009147937462934036 -0.0003993067948612365
0.005457702946039795 -0.0007658377601531296 -0.0004141969282977732
0.005478608616001059 -0.0006369259536209541 -0.0004236839935480344
0.005491860655031993 -0.0005254216103793473 -0.000428654641975076
0.005499264019399638 -0.0004289999526134299 -0.0004299394061246345
0.005502584540400484 -0.0003456194107017233 -0.0004282999789142749
0.005503522268622264 -0.0002734954462254478 -0.0004243687656186264
0.005503697682271244 -0.0002110749694993631 -0.0004187800841920255
0.005504670905265758 -0.0001570178905458052 -0.0004121415600088227
0.005507926994238666 -0.0001101785957409778 -0.0004049273323509079
0.005514878137956702 -6.958759459684039e-05 -0.0003976048959112753
0.005526895763661513 -3.443972705900327e-05 -0.0003905623718782403
0.005545299239184822 -4.080117321352133e-06 -0.00038402145053349
0.005571387381648066 2.200723092109941e-05 -0.0003782438670729249
0.005606470532218669 4.420568900353804e-05 -0.0003733284659221068
0.005651867388921725 6.277311701633507e-05 -0.000369317760449617
0.005708963864092038 7.784454084618203e-05 -0.0003662956558964458
0.005779224683734853 8.943079481489104e-05 -0.000364162947623544
0.005864217688003565 9.7416721192134e-05 -0.0003628971364868038
0.005965673122190335 0.0001015535318971173 -0.0003623982013920252
0.006085485118311073 0.0001014479975142784 -0.0003624379572923512
0.006225769774726276 9.654893441938971e-05 -0.0003628501379835681
0.006388906496344248 8.612737472738643e-05 -0.0003632641570408416
0.006577555629511842 6.925401197871991e-05 -0.0003632493657380396
0.006794732541848771 4.477087690511844e-05 -0.0003623310441901305
0.007043837896959202 1.125807045973215e-05 -0.0003598217571004779
0.007328701158811944 -3.300404430014066e-05 -0.0003550203879918865
0.007653661115846295 -9.007805000089142e-05 -0.0003471489831585902
0.008023601656595533 -0.0001624194070203462 -0.0003352564564454229
0.008444021764582902 -0.0002529304828624327 -0.0003184010926959767
0.008921135853239876 -0.0003650228574850096 -0.0002955008184901776
0.009461921346671752 -0.0005026866778455358 -0.0002651836893956384
0.0100742329696362 -0.0006705632642475341 -0.0002259706284384102
0.0107669268269174 -0.0008740258349971895 -0.0001758855634186892
0.01154991953800749 -0.001119262619754002 -0.000112389488808442
0.01243434652601009 -0.001413352316207286 -3.250037887254054e-05
0.01343266840467039 -0.001764339595329168 6.776505724208e-05
0.01455873067751173 -0.002181289071764026 0.0001931938332805111
0.01582789320755788 -0.002674312130536988 0.0003494011565183713
0.01725701775523605 -0.003254555093063935 0.0005433259664473326
0.01886440399156245 -0.003934124685954297 0.0007831061309947259
0.0206697245611187 -0.004725928592116361 0.001078337570145803
0.02269368808660402 -0.005643417610613082 0.00144062158876626
0.02495745680781072 -0.006700187736313467 0.001883726233717619
0.02748188597051779 -0.007909419465326856 0.002424179322030146
0.03028626244536725 -0.009283144706301 0.003082103214278014
0.03338640992864864 -0.01083133461518763 0.003881101567107088
0.03679212531356352 -0.01256081770394579 0.004848548130218954
0.04050369053839672 -0.01447410307514488 0.00601610622768855
0.04450751107941035 -0.01656820519794118 0.007419043347603056
0.04877107276109453 -0.01883365295403489 0.009095105968223629
0.05323739090860922 -0.02125386875674483 0.01108310370774131
0.05781984856906405 -0.02380512216599305 0.01342010769507572
0.06239897232781167 -0.02645711006641345 0.01613768003260715
0.06682287181597198 -0.02917390750805183 0.01925783251790672
0.0709136485530725 -0.0319145002768469 0.02278788803675866
0.07448276089370132 -0.03463111674068244 0.02671557309569416
0.07735895547826069 -0.03726221781474517 0.03100668180388314
0.07943568807013177 -0.03971492972887353 0.03560632004620127
0.08075675037073933 -0.04182824508118584 0.040445690811311
0.08169522023288743 -0.04330197917340052 0.0454614869270621
0.08339970581720509 -0.04356605719876722 0.05065177822020145
0.08910912108513983 -0.04156114893437193 0.05628269002783846
0.1087665475392865 -0.03551407931751163 0.06393248111696848
0.1800760778740303 -0.02365119747221167 0.08461094095653779
0.5413546707254334 -0.01041793048500074 0.2576035104578748
0.8200294395656172 -0.06862227789097773 -0.2453022747289014
0.3204944801671641 -0.0865804327057101 -0.02355073004432227
0.182542768704987 -0.08654726218701703 0.004108754874785358
0.1186025780682136 -0.07977367890652277 0.01130673083827728
0.08212246291321576 -0.07100168990294572 0.01359998978430467
0.05897125969751096 -0.06220944009913066 0.01405789685415464
0.04331707600512127 -0.0541238933263346 0.01366564279776974
0.03230586921490262 -0.04695191309025129 0.01284176294195754
0.02437369067407327 -0.04069602621861353 0.01180008897997831
0.01858553748361316 -0.03528337541118141 0.01066405175837082
0.01434159980124252 -0.03061793515915532 0.009509829436753003
0.01123494776813909 -0.02660184419172814 0.008385101266237101
0.00897751597553653 -0.02314404132219833 0.007319132284218354
0.007358913084649635 -0.02016341472427693 0.006329113872481279
0.006222023640443469 -0.01758946901262053 0.005423938708268111
0.005447786900150089 -0.01536185293347529 0.004606676335914593
0.004945116320936551 -0.01342939862407269 0.003876716360458032
0.00464387359379768 -0.01174897016491682 0.003230874385882449
0.004489904951763713 -0.01028431256392279 0.002664037998765929
0.004441405675459031 -0.009004990969394942 0.002170173637410779
0.004466154777268599 -0.00788543711492873 0.001742939492151556
0.004539463495807362 -0.006904129349763696 0.001375701346138248
0.004642592151455766 -0.006042891947288865 0.001061966107186911
0.004761428562284268 -0.005286312146873017 0.0007957281721144757
0.004885540829553617 -0.004621257056677436 0.0005713201023863364
0.005007468131657975 -0.00403647648533272 0.0003836658763378725
0.005122046936375477 -0.003522268613440653 0.0002281748957294377
0.00522590065490942 -0.003070219047789465 0.0001004637731347174
0.005317071869629366 -0.002672991483679888 -3.460233492409068e-06
0.005394659474914465 -0.002324155929129964 -8.711721679158955e-05
0.005458555739835213 -0.002018049992773747 -0.0001538664749465898
0.005509255324403483 -0.001749672559027972 -0.0002066470800173743
0.005547634984493746 -0.001514592071289984 -0.0002478691361030857
0.005574855629023445 -0.001308874630918319 -0.0002797354476957906
0.005592280484484955 -0.001129027395837113 -0.000303904490053581
0.005601358741798593 -0.0009719455135177819 -0.0003217077790611079
0.005603611166209994 -0.0008348688293437072 -0.000334310181525411
0.005600584910435766 -0.0007153482519117598 -0.0003425381349173724
0.005593806271994538 -0.0006112108489208875 -0.0003471656896016773
0.005584787463545483 -0.0005205360860327664 -0.0003489078770184909
0.005574998181724548 -0.0004416349737235921 -0.0003483723538746076
0.005565849055863836 -0.0003730284372423705 -0.0003461737408044243
0.005558706510957585 -0.0003134326124862767 -0.0003429051034730971
0.005554878412756079 -0.0002617443128034407 -0.0003390368488893424
0.005555613835909144 -0.0002170250014536272 -0.0003350237738803438
0.005562132578663761 -0.0001784913005822324 -0.0003312434118847384
0.005575614382077801 -0.0001455035749594717 -0.000327910280193131
0.005597226465921662 -0.0001175556219402621 -0.0003252695548779792
0.005628153647632505 -9.42699483713807e-05 -0.0003234194862371721
0.005669594044498015 -7.539183540955507e-05 -0.0003224061024050192
0.005722812612175701 -6.078735239144779e-05 -0.0003223227175694149
0.00578915196622615 -5.044584312234278e-05 -0.0003231033157375756
0.005870053184589876 -4.448186792881392e-05 -0.0003247583001433989
0.005967110298468344 -4.314302650572033e-05 -0.0003272358737095777
0.006082071217638899 -4.681920930511351e-05 -0.000330367021517016
0.006216889728484986 -5.605478809372429e-05 -0.0003340371674440145
0.006373763311869513 -7.156657347764211e-05 -0.0003379431073854655
0.006555148478308605 -9.426252179903321e-05 -0.0003417225323678051
0.006763827726440449 -0.0001252673294109156 -0.0003449727947558236
0.007002937117506429 -0.000165950480061759 -0.0003471054658777638
0.007276005916743622 -0.0002179584335087175 -0.000347535149373621
0.007587030012675545 -0.0002832531858957533 -0.0003456297811230849
0.00794050442283932 -0.0003641541347428446 -0.0003406326948760119
0.008341488402837022 -0.0004633842868666576 -0.0003318333005404009
0.008795697372113184 -0.0005841238152350678 -0.0003184246278366011
0.009309548541810167 -0.0007300662915131651 -0.0002993721060504802
0.009890271963440741 -0.0009054776131102414 -0.0002735718835852346
0.01054602946599682 -0.001115259714340557 -0.0002394779623412269
0.01128598156163797 -0.00136501076427455 -0.0001950623561782618
0.01212045216266724 -0.001661075490088919 -0.0001379093846402532
0.01306104633253478 -0.002010591771075218 -6.470219301345557e-05
0.01412074049176564 -0.00242150849570564 2.856235140150595e-05
0.01531404691128423 -0.002902574198421698 0.0001466195075666709
0.0166570529912295 -0.003463284003718331 0.0002953879160115281
0.01816743624748509 -0.004113756302804721 0.0004818433263366102
0.01986449350254716 -0.004864523033507527 0.000714323444046665
0.02176892465638671 -0.005726216076482473 0.001003081760020346
0.02390240893861002 -0.006709100375028829 0.001360473492867462
0.02628701638439742 -0.007822445367841172 0.001801649237788077
0.02894412530398947 -0.009073708888985224 0.002345466668168952
0.03189271436220244 -0.010467518749816 0.003014480618963604
0.03514694246532324 -0.01200446143999177 0.003835399584446188
0.03871270573213859 -0.01367974992988458 0.004839749994797053
0.04258318403545296 -0.01548185555507831 0.006063353345274925
0.04673350210623645 -0.01739129781033548 0.007545399107509622
0.05111462990240735 -0.01937981339083005 0.009327120013372613
0.05564747236275065 -0.02141017919113339 0.01144886531679282
0.0602188761987614 -0.0234368797748046 0.01394600851074539
0.06468165677239757 -0.02540758989627526 0.01684428086585368
0.06886165734931711 -0.02726500445981529 0.02015365289788891
0.07257588437605464 -0.02894771963486234 0.02386225334986975
0.07566668389375093 -0.03038787293285725 0.02793294013410194
0.0780606027083335 -0.03150210685907004 0.03230389385146822
0.07987279704875677 -0.03217154359294985 0.03689585236113931
0.08161389272048167 -0.0322070671354006 0.04163421560709591
0.08466805299034143 -0.03130337702105521 0.04651239446794903
0.09259320895496041 -0.02901816172812134 0.05181596326738529
0.1154060594922833 -0.02493542155784996 0.05919105087734562
0.188945423849879 -0.01953526242638928 0.0795986502948554
0.5407918510163597 -0.01740329001125936 0.2486168536233691
0.7823325890736563 -0.05068119435318144 -0.2417538040533777
0.3112681938329622 -0.07205479531185158 -0.02891053268140066
0.1842868429500047 -0.07663391791758177 -0.001496671432115375
0.1249571687779557 -0.07384471090542639 0.006664130366101989
0.08998357910498549 -0.06781665992418717 0.01004956541374013
0.06689407922393205 -0.06070857623349477 0.01144915203381218
0.05069030301779551 -0.05359512461088003 0.01179497677724866
0.03891407119071265 -0.04696261342768757 0.01152475823328501
0.03018212829284102 -0.04099498713652293 0.01088890255812697
0.02363818227876159 -0.03572783009039288 0.01004622853493445
0.01871313345626983 -0.03112778498845871 0.009102087694294415
0.01500812535977468 -0.02713271509885482 0.008126746401880439
0.01223262992434916 -0.02367178974762205 0.007166407285937846
0.01016919756159658 -0.02067528496576089 0.006250716669231904
0.008652035821041305 -0.01807905862353375 0.005397639741030616
0.007553274726231841 -0.01582625198103008 0.0046168157981947
0.006773606738603966 -0.01386757785880313 0.003912328872488811
0.006235571544227786 -0.01216088897456689 0.003284310319115277
0.005878673178391343 -0.01067043591181551 0.002729978356817238
0.005655710184950875 -0.00936603434481811 0.002244920210791693
0.005529928411652105 -0.00822223900553279 0.001823897793353185
0.005472864304333557 -0.007217595684507149 0.001461010608144572
0.005462651541819932 -0.006333974971520638 0.001150243648991592
0.005482596768075341 -0.005556000554646385 0.000885923100711439
0.005520138009551897 -0.004870569673346806 0.000662623205359472
0.005566058789283127 -0.004266460589464392 0.0004754209723030655
0.005613749094355728 -0.003733997866688216 0.0003198358276109217
0.005658630141484451 -0.003264786590246909 0.0001915823774279429
0.005697737258508836 -0.002851500748720725 8.672835597660477e-05
0.005729323534593789 -0.002487712813200751 1.786859937113494e-06
0.005752561561963941 -0.002167754659759773 -6.656075303066545e-05
0.005767325434385641 -0.001886611999445628 -0.0001212315035743543
0.005773956496834069 -0.001639833326618842 -0.0001646206603310034
0.005773147078687247 -0.001423458404473839 -0.0001988899780592972
0.005765846295849935 -0.001233961642740392 -0.0002256612933859693
0.005753138308508226 -0.00106820060820635 -0.0002462217733379508
0.005736217010742065 -0.0009233740230363601 -0.0002616822896981399
0.005716336144975231 -0.0007969904281275137 -0.000272830613507164
0.005694758762250857 -0.0006868347777102296 -0.0002804015037890763
0.005672756189996075 -0.0005909448143326271 -0.0002850757272638871
0.00565157788650374 -0.000507591106708175 -0.000287444685043965
0.005632432558577541 -0.0004352558361414108 -0.0002881106817548285
0.005616498418558716 -0.0003726185328642327 -0.0002876601130062064
0.005604909592561057 -0.0003185434805288847 -0.0002865690506481151
0.005598754363707469 -0.0002720640935948467 -0.0002852891575106343
0.005599101807953951 -0.0002323737500561122 -0.0002841922971461674
0.005606991880066448 -0.0001988152045790788 -0.0002834890980048381
0.005623459615333153 -0.0001708695864353455 -0.000283409007481473
0.00564956288806581 -0.000148151646843221 -0.0002840468239232073
0.005686377346740095 -0.0001304040716541884 -0.000285450197893087
0.005735044695781453 -0.0001174948953788665 -0.0002877181916295811
0.005796782371737113 -0.0001094209221258843 -0.0002908131575807156
0.00587290154726076 -0.0001063102132843486 -0.0002947751128869174
0.005964857293037648 -0.0001084294034470452 -0.0002995941302355609
0.006074248908611722 -0.0001161933751949548 -0.0003051514386064572
0.006202866472317845 -0.0001301775201458571 -0.0003113746830566789
0.006352725868283552 -0.0001511350109237435 -0.0003180130620899908
0.006526081782626409 -0.0001800147956030237 -0.0003247547500290666
0.006725488590067833 -0.0002179864058659069 -0.000331251007253568
0.006953825851454976 -0.0002664659478088444 -0.000336987572101584
0.007214333508355215 -0.0003271469183243234 -0.0003414689464393618
0.007510679636362312 -0.0004020375887546258 -0.0003441822563378689