# OOMMF: rectangular mesh v1.0
# Segment count: 1
# Begin: Segment
# Begin: Header
# Title: 
# Desc: time = 3.235661933042034e-11
# Desc: stepsize = 5.473181125903784e-13
# Desc: step = 60
# meshunit: m
# valueunit: (none)
# valuemultiplier: 218588.7433947425
# xmin: 0
# ymin: 0
# zmin: 0
# xmax: 4e-07
# ymax: 1e-07
# zmax: 4e-09
# ValueRangeMaxMag: 1
# ValueRangeMinMag: 0.003873725549722785
# meshtype: rectangular
# xbase: 2e-09
# ybase: 2e-09
# zbase: 1e-09
# xstepsize: 4e-09
# ystepsize: 4e-09
# zstepsize: 2e-09
# xnodes: 100
# ynodes: 25
# znodes: 2
# End: Header
# Begin: Data Text
0.8315516132233606 -0.5372337391250542 -0.1396936616991007
0.2492821298031121 -0.3670897875016256 0.06904859847411314
0.1170250666121087 -0.295039034143203 0.08352866141237182
0.06282906352507885 -0.2492856522653711 0.08006165484902997
0.03481484761679348 -0.2138065748972986 0.07312889287102177
0.01865560895789544 -0.1841471333709506 0.06548803515419724
0.00882638900020807 -0.1586785045435795 0.05797536629609217
0.002730381393058949 -0.1366038108652601 0.05090231415985391
-0.00102129301576344 -0.1174133661991219 0.04438840568512475
-0.003240808152823673 -0.1007181792110445 0.03846915827412434
-0.00443429642889913 -0.086194882288359 0.03313917114135647
-0.004932106401469146 -0.07356559336373067 0.02837236042868549
-0.004957354732974397 -0.06258902687320066 0.02413244126335977
-0.004664582753561169 -0.05305519263098338 0.02037880721215065
-0.0041628036522753 -0.04478140986539527 0.01707000387984399
-0.003529897697289 -0.03760882432987805 0.01416555762826992
-0.002821908595619917 -0.03139930620581018 0.01162695263282715
-0.002079289216515005 -0.02603263251185673 0.009417892740812343
-0.001331240742344813 -0.02140387027803774 0.00750431441398899
-0.0005987177108412717 -0.01742115039973 0.005854431602684545
0.0001034334080503672 -0.01400374285580721 0.004438731574198903
0.0007650436514762193 -0.01108053214503612 0.00323035752522352
0.001379700514777389 -0.008588985003229438 0.002205324311168777
0.001943851702424835 -0.006474128818682599 0.001341917133074677
0.002455946599683564 -0.004687410752333206 0.0006201706526871078
0.002915936349149154 -0.003185834417771901 2.197018450041781e-05
0.003325001213974564 -0.00193139486793999 -0.0004688642992994319
0.003685247866662441 -0.0008905506269064753 -0.0008667948085184336
0.003999411863592848 -3.369382746608931e-05 -0.001184779934538581
0.004270651647786038 0.000665296326328905 -0.001434375741479186
0.00450240283449913 0.00122942113277469 -0.001625826828773926
0.004698253156812567 0.001678891970713649 -0.001768181932508872
0.004861838755194771 0.002031430846992039 -0.001869405610323064
0.004996765837060027 0.002302536317133578 -0.001936478219219086
0.005106552623834767 0.002505723089645452 -0.001975489235652164
0.005194586844453616 0.002652738287751533 -0.001991726529826095
0.005264096431476146 0.002753756344911126 -0.00198975918454406
0.005318131679347813 0.002817554782448546 -0.001973514878184783
0.005359556780643151 0.002851674494716901 -0.001946350334049132
0.005391049213404195 0.002862560935502505 -0.001911116705146742
0.005415105477594938 0.002855692813120203 -0.001870217866471378
0.005434052099773154 0.002835695755902941 -0.00182566392960899
0.005450060785978424 0.002806443161700712 -0.001779117647530838
0.00546516707803271 0.002771143112341007 -0.001731936514382454
0.00548129169829833 0.002732416200000535 -0.001685207812765315
0.005500264277380251 0.002692357821709578 -0.001639779885425778
0.005523848994203987 0.002652592843240335 -0.00159628641342494
0.005553772049681703 0.00261431727289518 -0.001555167371777339
0.005591750752259434 0.002578330968637928 -0.001516682960878799
0.005639524421059908 0.002545057155020725 -0.001480924530474555
0.005698887060977001 0.002514555389290227 -0.00144781822784095
0.005771722209510394 0.002486518498826453 -0.001417125705740915
0.00586004014155305 0.002460262702429329 -0.001388437009656773
0.005966017945694511 0.002434702466559246 -0.001361160208670657
0.006092042825883172 0.002408315066511254 -0.001334502267803195
0.00624075933589049 0.002379087409439523 -0.001307445881851882
0.006415121008891181 0.002344452394959701 -0.001278716058517248
0.006618447198526731 0.002301201942089948 -0.001246741265034621
0.006854485757603177 0.002245385825134125 -0.001209602158047513
0.007127482382030493 0.002172184666691979 -0.001164972663485265
0.007442257297722759 0.002075760967748509 -0.00111004562387088
0.00780429012446947 0.00194907769728967 -0.00104144759360235
0.00821981342727506 0.001783690348620381 -0.0009551340838636147
0.008695915468577637 0.001569496381550204 -0.0008462695402125554
0.009240652229270511 0.001294449463987893 -0.0007090823967942474
0.009863168310285719 0.0009442248580869706 -0.0005366990578885089
0.01057382554375417 0.0005018376343237588 -0.0003209462937162794
0.01138433704308411 -5.279663615464052e-05 -5.212545253114636e-05
0.01230790270553504 -0.0007433525309438516 0.0002812527479415432
0.0133593401138074 -0.001597649372612166 0.0006927692219831729
0.01455520158792777 -0.002648257258834664 0.001198443616448949
0.01591386231813057 -0.003933156946404712 0.001817124002492685
0.01745555936020605 -0.005496438041120352 0.002570930930353548
0.01920235878242861 -0.007389015025777224 0.003485741548738417
0.02117801651175859 -0.009669325307523551 0.004591700394253492
0.02340766302097556 -0.0124039922315606 0.005923760912638158
0.02591723690417172 -0.01566837657832199 0.007522300470299548
0.02873264837686345 -0.01954688553765433 0.009433691968953625
0.03187860343043711 -0.02413296432935263 0.01171062417107913
0.03537682768778233 -0.02952879464907222 0.01441228757733563
0.03924352942022392 -0.035844517840545 0.01760467962788667
0.04348626824334074 -0.04319662267780593 0.02136052847756026
0.04810023030300056 -0.05170548060009161 0.02575820786921437
0.05306370167666747 -0.06149221304315343 0.03087988602183888
0.05833298352345046 -0.07267480815180484 0.03680903029698891
0.06383725562207876 -0.08536352307641648 0.04362695658552401
0.06947404116163634 -0.09965576420953452 0.05140853237973388
0.07510637531454148 -0.1156305184947829 0.06021696057614893
0.08056269765327861 -0.1333424825448339 0.07009787960359194
0.08564031381706061 -0.1528155948932494 0.08107368805465112
0.09011275236247733 -0.1740347176252242 0.09313887265785324
0.09374030440771236 -0.196932542858433 0.1062573063310279
0.09628254887812189 -0.2213649544928085 0.1203621281232527
0.09751267728248907 -0.2470598867070025 0.1353582872458682
0.09724167319053445 -0.2735033172180133 0.1511280203117463
0.09539427508376221 -0.2996626064053714 0.1675447627670663
0.09233104880787275 -0.3232208246712583 0.1845362648329076
0.0904826774833858 -0.3379719354164427 0.2025079810490057
0.1058024202001868 -0.3215240762217338 0.2268052482851508
0.3329509603142024 -0.1330594101333822 0.3584371655599282
0.8780418167340731 -0.1882917210960576 -0.2398623818239655
0.3094981483627058 -0.1716618197556332 -0.005677520448951197
0.156128440468691 -0.1428473225817886 0.01937620303437418
0.09143232691711214 -0.1195758423354468 0.02334173590559249
0.05763602641125122 -0.1012689520303739 0.02304955385218819
0.03767243868218812 -0.08638413971503815 0.02153961113656407
0.02499052623897842 -0.07397448781114097 0.01964377060002204
0.01659237819869528 -0.06348106610859343 0.01765568589299894
0.01091502815878173 -0.05454079080569339 0.01570057958367018
0.007058057187273557 -0.04689165893442823 0.01383906840905382
0.004461711421232927 -0.04032985433007791 0.01210170653915522
0.002757568370770361 -0.03468984486721254 0.01050280058612362
0.001692667484431711 -0.02983426412438477 0.009046959045149077
0.001087879451552723 -0.02564798782800629 0.00773283726485335
0.0008134986670156751 -0.02203411622746808 0.006555582983802329
0.0007741153089090935 -0.01891091763884791 0.005508263464435854
0.0008988211080823206 -0.0162093550819643 0.004582776321679265
0.001134615042115685 -0.01387100843985244 0.003770194560666597
0.001441745580051139 -0.0118463028703001 0.003060999979173772
0.001790387396143187 -0.01009301973967701 0.002445406350426697
0.002158211501453929 -0.008575053231026999 0.001913654208199951
0.00252862181053634 -0.007261417483600592 0.00145670384485402
0.002889618990169499 -0.006125459216212666 0.001066632316761059
0.003232882768987608 -0.005144190807455261 0.0007361027310363015
0.003552830727235661 -0.00429769321372114 0.0004579929701212236
0.003845922407689189 -0.003568631914285325 0.0002257019343287817
0.004110263989723939 -0.002941880256128609 3.337145336537426e-05
0.004345271832168937 -0.002404215971496886 -0.000124246479909289
0.004551332489784878 -0.001944054167175293 -0.0002519120316064336
0.004729537096712641 -0.001551225860239901 -0.0003539001728722213
0.004881491657057873 -0.001216794773361963 -0.000434006491407272
0.005009163094044084 -0.0009329050374682099 -0.0004955877410634569
0.005114750648533718 -0.0006926482133118828 -0.0005416041025177737
0.005200584917799058 -0.0004899531194584382 -0.0005746523270841515
0.005269051042602235 -0.0003194886268040908 -0.0005969990252126223
0.005322530371579385 -0.0001765792498374798 -0.0006106120844749228
0.005363357537965493 -5.713251864231544e-05 -0.0006171927141253616
0.005393790396853226 4.242591025708655e-05 -0.0006182026735250143
0.005415990850768195 0.0001252095292501896 -0.0006148925007741583
0.005432014366074891 0.0001939212177689571 -0.0006083240517093012
0.005443806856704384 0.0002508967000183532 -0.0005993948176914308
0.00545320730154345 0.0002981462147145795 -0.0005888555631239777
0.005461955284458709 0.0003373866335163531 -0.0005773306900545408
0.005471702241663582 0.0003700739486353152 -0.0005653310604469124
0.005484026013041143 0.0003974276455454621 -0.0005532706086887871
0.005500447816603363 0.0004204548604697223 -0.0005414745810522884
0.005522451579809892 0.0004399655589652997 -0.0005301926603246055
0.005551505007650699 0.0004565914459438951 -0.000519602880585962
0.005589082574378177 0.0004707923240571396 -0.0005098214914032527
0.005636690046900124 0.0004828674839910596 -0.0005009027332092405
0.00569589092293668 0.0004929552774059571 -0.000492845546833664
0.005768334571484707 0.0005010365860111152 -0.0004855892441474661
0.005855786621711979 0.0005069249907748548 -0.0004790169652700563
0.005960161535232615 0.0005102638768115641 -0.0004729470547373706
0.006083558027918353 0.000510506154267865 -0.0004671328951061048
0.006228297421904197 0.0005069011129462697 -0.0004612494952073179
0.006396965683671441 0.0004984642034658966 -0.0004548889719507502
0.006592459345194278 0.0004839515951444355 -0.0004475414615377179
0.006818036130589571 0.0004618154805978759 -0.0004385850484149345
0.007077370566649307 0.0004301658765239426 -0.0004272595863506389
0.00737461540074134 0.0003867082477292851 -0.0004126492506725869
0.007714469131542032 0.0003286862094960612 -0.0003936471429195902
0.008102250349377026 0.0002528001728432865 -0.0003689277945046323
0.008543979038786021 0.0001551272563297146 -0.0003368994480089757
0.009046465163387165 3.101491106308412e-05 -0.0002956626588142248
0.009617404173220144 -0.0001250226090971589 -0.000242945780914917
0.0102654788279837 -0.0003194379981036085 -0.0001760442073488367
0.0110004657013814 -0.0005597818334784077 -9.173269383041342e-05
0.0118333437439456 -0.0008548587200305105 1.382260630371813e-05
0.01277640065753149 -0.00121487918054874 0.0001451839104648778
0.01384333019920553 -0.001651629327038179 0.0003077664916822738
0.01504930924813252 -0.002178621143115046 0.000508001836608179
0.01641104021417233 -0.002811246006685007 0.0007535177117430199
0.01794674186373234 -0.003566884719660884 0.001053361886306986
0.01967605617326025 -0.004464983231344932 0.00141822570970623
0.02161981252678187 -0.005527046103464829 0.001860719459799708
0.02379960026152942 -0.006776540012573046 0.002395738430871427
0.02623713223734049 -0.008238646268443332 0.003040866087954744
0.02895328737049097 -0.009939864738606365 0.003816572565047181
0.03196659014563374 -0.01190741374030506 0.004746391370762207
0.03529104932322605 -0.01416842839006757 0.005857427413163961
0.03893346654363725 -0.01674893468609138 0.007180801000321238
0.0428900557996069 -0.01967265314588932 0.008751300208340808
0.04714215851281921 -0.02295971014059416 0.01060652259985407
0.05165131790045072 -0.02662544292354429 0.01278571595247397
0.0563541625320611 -0.03067942255752539 0.01532800890282895
0.06115779481332535 -0.03512483091284923 0.01827001796716085
0.06593693574852923 -0.03995817914519604 0.02164263209847424
0.07053418651381528 -0.04516903012534226 0.02546694831547917
0.07476500990836474 -0.05073880800465469 0.0297501150655122
0.07842904474449629 -0.05663673883236966 0.0344817580477856
0.08132943202950725 -0.0628092660984871 0.03963210982909453
0.08330383544638501 -0.06915620790945622 0.04515308071510824
0.08427842735802835 -0.0754803803353094 0.0509839097524894
0.08438382115329349 -0.08138146026073369 0.05706571702935049
0.08426945385004339 -0.08602164414199982 0.06338316184253542
0.08614383011828174 -0.08756522158617158 0.0701258587080706
0.09798915519692174 -0.08174255234255121 0.07857267798079016
0.1560088415179601 -0.05862579157752093 0.09878474487860636
0.5168624467888985 -0.00713854378851329 0.2714137234663885
0.8539925293162912 -0.1031872209199954 -0.2460180520249447
0.3231979024847656 -0.1127936277202124 -0.01628704684582775
0.1747977986177079 -0.1037690886213905 0.01083077874538703
0.1081390249087566 -0.09080340766812899 0.01661551073962822
0.0717486869922475 -0.078361057642564 0.01764538137295015
0.04955885348995159 -0.06741393887763655 0.01712728725273754
0.03505293688989823 -0.05799595273654103 0.01600834930338845
0.02514905945289688 -0.04993806113580932 0.0146467761534447
0.01821388883153121 -0.04305003490081705 0.01320576768782659
0.01329792027604003 -0.03715928924688543 0.01177071677080507
0.009806151043185187 -0.03211624767249883 0.01038985018444311
0.007343111812997721 -0.02779283373177464 0.00909079236759892
0.005633977220980676 -0.02407997682884306 0.007888474358365854
0.004481430564479035 -0.02088519599883035 0.00678965647991926
0.003740462676591891 -0.01813039233352747 0.005795896845491582
0.003302763839210349 -0.01574982366694083 0.004905371016025547
0.003086580434583116 -0.01368828090373011 0.00411407496216413
0.003029840000007418 -0.0118994436580147 0.003416397611072013
0.003085243557619828 -0.01034443188208018 0.002805521356340983
0.00321670470932197 -0.00899055114443034 0.00227388373770837
0.003396698494460782 -0.007810227881202537 0.001813577616687828
0.003604290910041188 -0.00678013569043975 0.001417127897316394
0.003823844349106746 -0.005880482243889477 0.001077959009438029
0.004044003793530847 -0.005094406553499261 0.0007899161816405224
0.004256663973272551 -0.004407469922150303 0.0005469144980467705
0.004456167069580587 -0.00380723913684569 0.0003432654327201449
0.004638823364285503 -0.003282958299915213 0.0001739222780398556
0.004802521735091773 -0.0028252823458553 3.43657193156542e-05
0.004946346041725063 -0.002426057063049797 -7.951027027645234e-05
0.005070268751929301 -0.002078137234480363 -0.0001713939859260912
0.005174928075636324 -0.001775242810916211 -0.0002445543876272746
0.005261449019216779 -0.001511839278614791 -0.0003018765835665588
0.0053312946405667 -0.001283038777094824 -0.0003458984407070786
0.005386148706910235 -0.001084520185767004 -0.0003788414907132888
0.005427825445050777 -0.0009124609032300239 -0.0004026384186327539
0.0054582005783227 -0.000763479500296854 -0.000418963873214632
0.005479159485026992 -0.0006345867646876629 -0.0004292601136334786
0.005492559995726315 -0.000523145184755649 -0.0004347651716510108
0.005500206952441946 -0.0004268298650061717 -0.0004365338194780678
0.00550383666363693 -0.0003436002282865539 -0.0004354625632247757
0.005505109069412104 -0.0002716694005468331 -0.0004323057671118847
0.005505606496343809 -0.00020948227140355 -0.0004276973548560727
0.005506837350591901 -0.0001556910251399554 -0.0004221620572856519
0.005510244169459605 -0.0001091406241144589 -0.0004161340096716187
0.005517214789470038 -6.884709451553975e-05 -0.0004099633685956384
0.00552909646715262 -3.39899580092762e-05 -0.0004039321286644458
0.005547212031693797 -3.895070368143821e-06 -0.0003982564338811547
0.005572878219445751 2.196887021297137e-05 -0.0003930999460800347
0.005607425509172283 4.400305168802921e-05 -0.0003885721577974016
0.005652219850390598 6.247549665368733e-05 -0.0003847395600618511
0.005708685795494904 7.753124463340671e-05 -0.0003816201724301689
0.005778331603952412 8.918238683214005e-05 -0.0003791926134256669
0.005862775988725241 9.731299008455929e-05 -0.0003773869077271321
0.00596377720497406 0.0001016640970683138 -0.0003760913646462378
0.006083264283000705 0.0001018324840182077 -0.0003751395205288257
0.006223371211214379 9.724727119181885e-05 -0.0003743144740217435
0.006386473993656773 8.716343936168389e-05 -0.0003733315632570765
0.006575231462261229 7.062892943844255e-05 -0.0003718394861963202
0.006792629884015089 4.646908482938762e-05 -0.0003693979647498169
0.007042032289997064 1.32451944499135e-05 -0.0003654745545117478
0.007327232659713633 -3.077215492600545e-05 -0.0003594160770590093
0.007652515889368774 -8.765752879513307e-05 -0.0003504394257384252
0.008022723717512692 -0.0001598678742789975 -0.0003375948628022949
0.00844332741722517 -0.0002503110250987335 -0.0003197482579095731
0.008920507327863576 -0.0003623970804812188 -0.000295533294838153
0.009461239665256253 -0.0005001181656946984 -0.000263321250687726
0.0100733902310256 -0.000668113025811863 -0.0002211575510658122
0.01076581449898604 -0.0008717578644027139 -0.0001667131215936296
0.01154846245214752 -0.001117235169575209 -9.719799996886726e-05
0.01243248562502819 -0.001411624541792543 -9.285046379977926e-06
0.0134303416222452 -0.001762962753359982 0.0001010093707364284
0.0145558875079843 -0.002180307592047495 0.0002384425460467378
0.01582445117762478 -0.002673756936239098 0.0004087194561837544
0.01725286737213762 -0.00325444608014751 0.0006186734978313161
0.01885945085996027 -0.003934463931623998 0.0008764898329875042
0.02066385082042811 -0.004726708000259789 0.00119195111525419
0.02268674176676745 -0.005644616150799272 0.001576827456718973
0.0249493360564296 -0.006701781464947975 0.002045286771374365
0.02747260242627661 -0.007911386334861539 0.002614153308008801
0.03027592791684645 -0.009285466150189546 0.00330313989919932
0.0333751348634897 -0.01083399287848543 0.004135499212759111
0.03677995035164149 -0.01256381937371377 0.00513862469047319
0.04049070974823157 -0.0144774789693289 0.006343898042999433
0.04449399297815318 -0.0165719920193251 0.007785998351428894
0.04875744095587988 -0.01883787741647451 0.009501930117698702
0.05322420667356176 -0.02125854439617051 0.01152934892714473
0.05780779599412836 -0.02381024420586043 0.01390414879534744
0.06238877798063166 -0.02646266737084691 0.01665699464659
0.06681517719404763 -0.02917988870718436 0.01980876509689154
0.07090892140630312 -0.03192089479063561 0.02336565740562556
0.07448121359303085 -0.03463789923454503 0.02731480224143935
0.07736045298961661 -0.03726933458376259 0.03162176342951216
0.07943985197745319 -0.03972228874065774 0.03623166824320498
0.08076307481853269 -0.04183571207333916 0.04107637721407451
0.08170306307173385 -0.04330939017313518 0.04609386790330349
0.08340827529272334 -0.04357324345672327 0.05128388066811695
0.08911774294910059 -0.04156794791925364 0.05691453591696868
0.1087757612383796 -0.03552029171870333 0.06456510789720069
0.1800929991597449 -0.02365641266140739 0.0852381502822329
0.5414413512780042 -0.01042092195964773 0.2581515973849015
0.8199526059031677 -0.06861417512944679 -0.2440227023936367
0.3205320700987663 -0.08656898204301108 -0.02212900385580371
0.1825861031818728 -0.08653684057864558 0.005420809882018067
0.1186408284629041 -0.07976528078534245 0.01247876260338674
0.08215496442611966 -0.07099540335446577 0.01463907651481841
0.05899891223184001 -0.06220500690087925 0.01497907898614312
0.04334088275077546 -0.05412095725952026 0.01448444925653919
0.03232667339679418 -0.04695014117489581 0.01357217328615055
0.02439217798146445 -0.04069515338139822 0.01245406698033984
0.0186022528236018 -0.03528320840291158 0.0112513595090989
0.0143569716429128 -0.03061833985758526 0.01003799830308355
0.01124931393196955 -0.0266027266056146 0.008860005314628584
0.008991090534783803 -0.02314531981053668 0.007745497314019243
0.007371788869206024 -0.020164998248981 0.006710680766921558
0.006234216753126757 -0.01759125019397639 0.005763873438371451
0.005459229902622605 -0.01536371310260344 0.004908078763493959
0.004955670359077956 -0.01343121655509491 0.004142735032703871
0.004653445236620842 -0.01175064428300506 0.003464679287885052
0.004498506692786963 -0.01028577411897899 0.002868824504068884
0.004449139011560539 -0.009006203193753644 0.002348818554061354
0.004473145610548714 -0.007886379141754687 0.001897589787495132
0.004545716899222373 -0.006904786088658122 0.00150821960682844
0.004647998645345899 -0.006043254903770605 0.001174514990550669
0.004765979763370874 -0.005286387698997947 0.0008906067136158739
0.004889369519100956 -0.004621059508006562 0.0006506242907063224
0.005010700946471403 -0.004036018220929474 0.000449029382077347
0.005124775379766082 -0.003521558599579833 0.0002808879130212011
0.005228219102361185 -0.003069269860355324 0.0001417753641680285
0.005319055296862914 -0.002671818638964381 2.76699351703481e-05
0.005396358291246018 -0.002322779227185177 -6.504114545367356e-05
0.005459999299847081 -0.002016494963690243 -0.0001395571383849176
0.005510443101573238 -0.001747969716941924 -0.0001986960487305709
0.005548580098276389 -0.00151277532547015 -0.0002449323721919483
0.005575593354914517 -0.001306981126444292 -0.0002804256901647677
0.005592856257904109 -0.001127093275891371 -0.0003070516593700684
0.005601853761177634 -0.0009700042684662724 -0.0003264291412215572
0.005604123067004889 -0.0008329525447589194 -0.0003399511924616171
0.005601210124235059 -0.0007134858298401736 -0.0003488077930431352
0.005594639429337529 -0.0006094315938054004 -0.0003540138528532219
0.005585894193782983 -0.0005188693030123185 -0.000356426722342196
0.005576405294448807 -0.0004401105601167349 -0.0003567710914596592
0.005567546826795287 -0.0003716741725291729 -0.0003556510826369786
0.005560637397778213 -0.0003122738408311168 -0.0003535721241245584
0.005556945508996739 -0.000260797147967642 -0.0003509478253145154
0.005557698710674469 -0.0002162975640967952 -0.0003481191964027639
0.005564095267711973 -0.0001779769622772402 -0.0003453566882385401
0.00557731842934348 -0.0001451839335251434 -0.000342877188780649
0.005598552330510429 -0.0001173970250904098 -0.0003408416447186495
0.005628999909025587 -9.422930663631673e-05 -0.0003393702164717678
0.005669902086635131 -7.541497894786279e-05 -0.0003385358365822839
0.005722558814593729 -6.081824696939905e-05 -0.0003383777860133249
0.005788351396226326 -5.042383641231242e-05 -0.000338891428465328
0.005868766846290413 -4.435275990540646e-05 -0.000340040295100258
0.0059654238353801 -4.285498089916435e-05 -0.0003417420759970319
0.006080101092853777 -4.633269116062484e-05 -0.0003438790909139334
0.006214767943396563 -5.533861490641273e-05 -0.000346280416850579
0.006371617943193632 -7.060541949614453e-05 -0.0003487303696389065
0.006553105412140163 -9.305083237240844e-05 -0.0003509463972507115
0.006761985906779047 -0.0001238164229218859 -0.0003525848678845595
0.007001360562241183 -0.0001642784916493962 -0.0003532140212141988
0.007274725411445428 -0.0002160974173535297 -0.0003523159160451274
0.007586025757256411 -0.0002812385459772551 -0.0003492532281839296
0.00793971674252191 -0.000362030506644627 -0.0003432655488547516
0.008340830316481597 -0.000461196702339114 -0.0003334280254252271
0.008795049701264502 -0.0005819248187431981 -0.000318639133896404
0.009308791582368825 -0.0007279053554418712 -0.0002975678391658637
0.009889296845543046 -0.0009034097380635651 -0.0002686282333486156
0.01054472976165303 -0.001113334737681232 -0.0002299096477551324
0.01128428553862146 -0.00136327829070396 -0.000179130401601316
0.01211830510738876 -0.001659577497112221 -0.000113541491425532
0.01305839449563482 -0.002009367197881619 -2.984816519794022e-05
0.01411754270576704 -0.002420583588426665 7.592757626470811e-05
0.01531023011810743 -0.002901972000267477 0.0002085832091045156
0.01665251892690704 -0.003463015272272696 0.0003739410996834139
0.01816210037284938 -0.004113826431289633 0.0005790416786286847
0.01985824486709503 -0.004864928423012158 0.0008324268769199225
0.0217616146655811 -0.005726954957028245 0.001144528939435358
0.02389393431958696 -0.006710170849724981 0.001528147101704503
0.02627738782480973 -0.007823849579440692 0.001998725558069895
0.02893345424915449 -0.009075441720508566 0.002574696103786881
0.03188109490927508 -0.01046958842635171 0.003278250762237882
0.03513438748933564 -0.01200690455505593 0.004136123567967515
0.03869929386405654 -0.01368262681040791 0.005179559525744688
0.04256918436202126 -0.0154852296126397 0.006443816031809825
0.0467193465975771 -0.01739523386227662 0.007967332548663093
0.05110089508119005 -0.01938436563459125 0.00979014666444075
0.05563485638184868 -0.02141539253951808 0.01195138845974466
0.06020811596455539 -0.02344278769433618 0.01448549746843535
0.06467340230885418 -0.02541421464448145 0.01741700039027609
0.06885639628071305 -0.02727234635217856 0.02075467488124953
0.0725738641794041 -0.02895574096264813 0.02448598257272112
0.07566781025974927 -0.03039648702773249 0.02857347099581253
0.07806454172129543 -0.03151117403796728 0.03295526994641938
0.07987908138389768 -0.03218087077228154 0.03755276891360941
0.08162189585599545 -0.03221642563866404 0.04229271615156117
0.08467697497467414 -0.03131252493387283 0.04717031600065923
0.0926023757037184 -0.02902685582118847 0.05247330716685584
0.1154160968363974 -0.02494337992269528 0.05984896449200221
0.1889638423333427 -0.01954199091654449 0.0802507453459029
0.5408828897829961 -0.01740710771483004 0.2491871069545919
0.7822644047907477 -0.05067232447442512 -0.2405036676580183
0.3113056006755681 -0.07204348065305935 -0.02750949530753802
0.1843283927974224 -0.0766240070056755 -0.0001887360897972648
0.1249933278193944 -0.07383691725049261 0.00784680660794481
0.09001413513980273 -0.06781097154742556 0.01111016769227463
0.066920101018933 -0.06070472116143827 0.0123988904066808
0.05071282214872607 -0.0535927510641853 0.01264627890136405
0.03893388809453712 -0.04696138338145232 0.0122893110887961
0.03019986110441226 -0.04099462008740087 0.0115770645630007
0.02365431284082271 -0.03572810931247841 0.01066670964120079
0.01872803843441194 -0.03112855327991805 0.009661780724659581
0.01502211020013047 -0.02713386300166876 0.008631158140047449
0.01224589980209934 -0.0236732366800316 0.007620080828552875
0.01018185457381455 -0.02067695387084372 0.006657343549209051
0.0086641099491944 -0.01808086449445945 0.005760403140163163
0.007564708220219996 -0.01582809811314652 0.004938846771485824
0.006784257438931542 -0.01386936267830606 0.004196819450745752
0.00624532447959894 -0.01216251960632283 0.003534511216387488
0.005887510189484125 -0.01067184503054301 0.002949197417511878
0.005663706989857626 -0.009367182169331493 0.002436172491118542
0.005537197607459883 -0.008223107702985399 0.001989483558040075
0.005479405816195867 -0.007218175288402055 0.001602940684085988
0.005468346799905651 -0.006334262150910344 0.001270825556237374
0.005487424767678865 -0.00555600262954444 0.0009876074182159609
0.005524227355763906 -0.00487030557329088 0.000747650311718723
0.005569539772494965 -0.004265947451416197 0.000545561658261676
0.005616713569259026 -0.00373324960852462 0.0003764962071888586
0.005661169114463123 -0.00326381831798032 0.0002360938483484856
0.00569992263663099 -0.002850332275660813 0.0001203821249588516
0.005731200839075804 -0.00248636695336912 2.578678555270763e-05
0.005754154518353333 -0.002166259915646187 -5.085828542676395e-05
0.00576863075605822 -0.001884999566223918 -0.0001123407585260311
0.005774985369819807 -0.001638135014350492 -0.0001611040512518751
0.005773934580817999 -0.001421706290293944 -0.0001992788116782019
0.005766440352325598 -0.001232184904340921 -0.0002287097327967384
0.005753622367324046 -0.001066425570629872 -0.0002509882991444571
0.005736691118139357 -0.0009216249988630347 -0.0002674777560290069
0.005716898807435591 -0.0007952899990899919 -0.0002793439898551372
0.005695504282452692 -0.0006852041076790078 -0.0002875750730720888
0.005673749707413296 -0.0005894073291250016 -0.0002930093112710645
0.005652846141772113 -0.000506169163603531 -0.0002963489695362242
0.005633966723121998 -0.0004339740085568894 -0.0002981853502135966
0.005618245319610476 -0.0003714982665545181 -0.0002990066898867787
0.005606780082451479 -0.0003176027396932066 -0.0002992205876024871
0.005600640261329541 -0.0002713104855375577 -0.0002991564477935667
0.005600876243454129 -0.0002318059518833105 -0.0002990857550385604
0.005608531546138261 -0.0001984156227218863 -0.0002992195501563213
0.005624657100680713 -0.0001706110980648625 -0.000299727050247995
0.005650326807134567 -0.0001479925483407913 -0.0003007286313711185
0.005686654975551026 -0.0001302983596419611 -0.0003023131940004328
0.005734814819168605 -0.0001173895853356176 -0.000304527041986387
0.005796058805248346 -0.0001092665488872098 -0.0003073902427232563
0.005871740173952839 -0.0001060570947151605 -0.0003108816572723657
0.005963336567980515 -0.0001080381087150519 -0.000314954360166393
0.006072475202535344 -0.0001156284226587584 -0.0003195169192697448
0.006200960630602506 -0.0001294183893698446 -0.0003244477232980239
0.006350804656027477 -0.0001501663174112063 -0.0003295724243777945
0.006524259541971736 -0.0001788367947880835 -0.0003346767675053716
0.006723854213076777 -0.0002166041617563673 -0.0003394798618692569
0.006952434695115375 -0.0002648979256580004 -0.0003436447746236871
0.007213208674091491 -0.000325414698379664 -0.0003467469503587006
0.007509795549206937 -0.0004001742161461657 -0.0003482813404085814
0.007846282094892543 -0.0004915383119055213 -0.000347624719354831