# OOMMF: rectangular mesh v1.0
# Segment count: 1
# Begin: Segment
# Begin: Header
# Title: 
# Desc: time = 1.3552203002760768e-10
# Desc: stepsize = 4.618886084975014e-13
# Desc: step = 280
# meshunit: m
# valueunit: (none)
# valuemultiplier: 218519.2606652747
# xmin: 0
# ymin: 0
# zmin: 0
# xmax: 4e-07
# ymax: 1e-07
# zmax: 4e-09
# ValueRangeMaxMag: 1
# ValueRangeMinMag: 0.003878879340922755
# meshtype: rectangular
# xbase: 2e-09
# ybase: 2e-09
# zbase: 1e-09
# xstepsize: 4e-09
# ystepsize: 4e-09
# zstepsize: 2e-09
# xnodes: 100
# ynodes: 25
# znodes: 2
# End: Header
# Begin: Data Text
0.8319909712982626 -0.5365278190703854 -0.1411698375778255
0.2494212051784581 -0.3661413735165686 0.06764467645178121
0.1171233123705438 -0.2941421337063514 0.08227923821984413
0.06291231450255616 -0.2484851378054111 0.07896738683886016
0.03488990772931948 -0.2131050615402759 0.07217199328541996
0.01872515452684554 -0.1835362040845585 0.0646484589371816
0.008891601869336558 -0.1581470672834696 0.05723498370382164
0.002791767438697304 -0.1361408864769607 0.05024582894021918
-0.0009635156876584079 -0.1170090100654839 0.04380332141875763
-0.003186480255915956 -0.1003637039939341 0.03794537174188634
-0.004383236347005189 -0.08588290466546611 0.03266863181711664
-0.004884118181057183 -0.07329003784398724 0.02794881960151842
-0.004912193527847424 -0.06234500951411757 0.02375122956372378
-0.004621922337848073 -0.05283886258228952 0.02003640592449011
-0.00412227395250365 -0.04458974650579883 0.01676343527541491
-0.003491167971653481 -0.03743943562768691 0.01389192762815154
-0.002784806167892617 -0.03125019052151305 0.01138318104727489
-0.002043872312837342 -0.02590193774138471 0.009200819682289292
-0.00129772286049139 -0.02128976403812445 0.007310990776355012
-0.0005673144681674079 -0.01732179482717186 0.005682317989737436
0.0001326669868654169 -0.01391744383740126 0.0042858323730737
0.0007922440297187826 -0.01100592132814774 0.003095043338007037
0.001404993969304045 -0.008524932586461328 0.002085907259439049
0.001967202675852353 -0.006419546098214519 0.001236698716390192
0.002477263962677461 -0.004641233941753008 0.0005277240096686932
0.0029352204805803 -0.003147077814217056 -5.889012052729553e-05
0.003342340749694155 -0.001899129615324304 -0.0005392276991997652
0.003700762190304936 -0.0008638706227012807 -0.0009277622559401853
0.0040132309000653 -1.176186816590115e-05 -0.001237488924790885
0.004282905355588807 0.0006831786579522644 -0.001479903880802317
0.004513203848806851 0.001243827374787596 -0.001664949253477772
0.004707683314915894 0.001690326503086696 -0.001801311960455916
0.004869989739625612 0.002040362214620733 -0.00189681023400673
0.005003797411563216 0.002309400698001492 -0.001958363161600476
0.005112686802772221 0.002510900417370851 -0.001992017933843222
0.005200077406062215 0.002656508224573988 -0.002003124213694906
0.005269198605401762 0.002756235234438722 -0.001996328420756792
0.00532305184037299 0.002818683475724427 -0.001975491615692822
0.005364405538710282 0.00285128527494731 -0.001943825716838462
0.005395841228143303 0.002860443665777374 -0.00190419989106634
0.005419794927675115 0.002851686213586336 -0.00185910170932266
0.005438552241063916 0.002829780754728469 -0.001810643367352849
0.005454271575030193 0.002798762249590663 -0.001760832469348434
0.005469015891449827 0.002761985820155567 -0.001711329904510454
0.005484721531903885 0.002722170587518286 -0.001663308972134253
0.005503223047486162 0.002681437288689758 -0.001617668709148716
0.005526305451369286 0.002641364223152623 -0.001574831089851165
0.005555693754331541 0.00260304976178694 -0.001534780929331609
0.005593109181455786 0.00256717765624399 -0.001497387419415225
0.005640319639343608 0.002534058826509567 -0.001462335082852059
0.005699131041155635 0.002503673406294137 -0.00142927423458229
0.005771443518159839 0.002475695579337509 -0.001398041169733368
0.005859282978135101 0.002449479295376318 -0.001368431424235512
0.005964807088734266 0.002424027513805509 -0.001340225468975972
0.006090383655355486 0.002397943354759854 -0.001313168224615386
0.006238645849336503 0.002369343347955162 -0.001286566036947001
0.006412528034433531 0.002335740034919148 -0.001259331097905626
0.006615365116608294 0.002293943181055735 -0.001229975291240485
0.006850950114736018 0.002239945744498542 -0.001196324008361909
0.007123555162995712 0.002168791135881601 -0.001155759002033719
0.007438022726167831 0.002074478551331018 -0.001105314620816879
0.007799826142525982 0.001949846303367637 -0.00104142245083997
0.008215120331500585 0.001786388850505452 -0.0009600347884055392
0.008690887028877752 0.001574039010797356 -0.0008565218351389718
0.009235080320920091 0.001300888738920109 -0.0007252258261571082
0.009856756048002754 0.000952790103570218 -0.0005593119859943483
0.01056624037939392 0.000512910295169105 -0.0003506404624227932
0.01137528424546258 -3.87107076822436e-05 -8.945776859719753e-05
0.01229715305446858 -0.0007256783682190142 0.000235840300284323
0.01334670465854548 -0.001575772755931038 0.0006387355044050786
0.01454050395857157 -0.002621481854906341 0.001134900084433793
0.01589691023715567 -0.003900633631186277 0.001742884356665703
0.01743611062286222 -0.005457133476202301 0.002484511504588373
0.01918014487327933 -0.007341719450388104 0.003385313881920173
0.02115282319276557 -0.009612696461543134 0.004475265353503266
0.02337938642031624 -0.01233661900874109 0.005789360108653132
0.02588590434437915 -0.01558882440361834 0.007367944695478932
0.02869840952621865 -0.01945372708521549 0.009257055822422174
0.03184165920897285 -0.02402481534748405 0.01150902800894169
0.03533740274814966 -0.02940431660162761 0.01418306537367522
0.03920202742035835 -0.03570238955727741 0.01734535700218034
0.04344345782117853 -0.04303562115287463 0.02106870248514219
0.04805726462602041 -0.05152471928050653 0.02543160663569569
0.0530220265576682 -0.06129133728532146 0.03051666327904842
0.05829422373999892 -0.07245407356306131 0.0364080937561018
0.06380316027518793 -0.08512380538303266 0.04318841213061089
0.06944655119699832 -0.09939851927724321 0.05093398009153134
0.07508767068896262 -0.115357757901836 0.05970951668825155
0.08055514427828127 -0.1330567392810464 0.06956205217362336
0.08564629510601829 -0.1525198443270128 0.08051504876852794
0.09013441751084358 -0.173732272281794 0.0925637437932543
0.09377938576998048 -0.1966269316260708 0.1056725688434295
0.09634019219506595 -0.2210598314201808 0.1197749554072939
0.09758934345055073 -0.246758848953845 0.1347755537863767
0.09733726871343806 -0.2732095588387916 0.1505555821083001
0.09550872427347251 -0.2993783828165535 0.166986945011703
0.09246560675269055 -0.3229465228816549 0.1839957191388467
0.09064351613913782 -0.3377038096524604 0.2019870666584223
0.1060159371106627 -0.3212466404365725 0.2263169064455792
0.3333967181145853 -0.1327128300333187 0.35813433759545
0.8788800314718358 -0.1881332950608015 -0.2413153659928638
0.309700438097711 -0.1713617276551948 -0.007019069751790673
0.1561997871643209 -0.1425143589812116 0.01817758745512886
0.09146458886387121 -0.119256278598883 0.02228599032787958
0.05765629704805293 -0.1009787407475098 0.02212103851523391
0.03769037635194271 -0.08612707191000359 0.02072034464080568
0.02500959719379264 -0.07374947717333785 0.01891735167010868
0.01661352854238947 -0.06328515643608011 0.01700822193889812
0.01093818321802704 -0.05437046761895242 0.01512072146307273
0.007082793397537103 -0.04674343834890832 0.01331766008006678
0.00448750166285749 -0.04020055529913436 0.01163148269389579
0.00278387398501573 -0.03457670804773623 0.01007816344451001
0.001719050084173264 -0.02973498080710298 0.008663784532920198
0.001114071997686549 -0.02556067598616268 0.007388037620786207
0.0008393902999763906 -0.02195726585525107 0.006246455848320269
0.0007996850122149393 -0.01884331648528225 0.005232005930321499
0.0009240378710191504 -0.01615000087600789 0.004336234445095447
0.001159337555093517 -0.01381902050575511 0.003550072766665292
0.001465732685965636 -0.01180086471931759 0.002864259973452299
0.001813368080938885 -0.01005336389502759 0.002269521802533258
0.002179982763331089 -0.008540489960117767 0.001756721662812362
0.002549143051894209 -0.007231364687669515 0.001317166678734194
0.00290892064956095 -0.006099426823340865 0.0009427950915361442
0.003250898827492208 -0.005121737872177947 0.0006262406029518271
0.003569434115509888 -0.004278409152032933 0.0003607083754534427
0.003861069003990854 -0.003552137627130764 0.0001398899084767177
0.004124010109450782 -0.002927828765313167 -4.196326788936864e-05
0.004357700425207856 -0.002392289772153723 -0.0001901279476238803
0.004562510925241576 -0.001933969736535766 -0.000309428943509342
0.004739523576763089 -0.001542737314009296 -0.0004040897141824236
0.004890346850662962 -0.001209689141307761 -0.0004775812463697168
0.005016940667841586 -0.0009269896507493264 -0.0005328649733624399
0.00512152474537862 -0.0006877413689087828 -0.0005727288864451127
0.005206489968767075 -0.0004858854153183102 -0.0005996955447277671
0.005274259727980894 -0.0003161149137019456 -0.000616011842171643
0.005327217327612044 -0.0001737936856432561 -0.0006237749775578161
0.005367681050284916 -5.487983962651765e-05 -0.0006248328114500359
0.005397874324108482 4.414911588924332e-05 -0.0006206342175018553
0.005419900864334948 0.00012636980198994 -0.0006123189941287529
0.005435766656455791 0.0001944717985944666 -0.0006009758818572028
0.005447406868901079 0.0002508035606900346 -0.0005875719695450566
0.005456649200707083 0.0002974070415514325 -0.0005729474012854873
0.005465222578444287 0.0003360420224192853 -0.0005580743176595186
0.005474789564311288 0.0003682033786144959 -0.0005437709152746437
0.005486911053326171 0.0003951383669615216 -0.0005305341571367888
0.005503076280596515 0.0004178647372935107 -0.0005187365579616697
0.005524758955370887 0.0004371883681264293 -0.0005083791460092732
0.005553406310086439 0.0004537216473224253 -0.0004991292949814352
0.005590491762680585 0.0004679011043124793 -0.0004906604933683395
0.005637558531623322 0.0004799999074888409 -0.0004825663318690843
0.005696202785901104 0.0004901369812209456 -0.0004745324509257994
0.005768118688255591 0.0004982818332220598 -0.0004665899572067253
0.005855116663576642 0.0005042528378521397 -0.000458862023747265
0.005959115333559265 0.0005077092395155654 -0.0004515919325969129
0.006082205967867219 0.0005081338291585889 -0.0004451358851222771
0.006226689540252363 0.0005048047170638072 -0.0004395378091452006
0.006395104829416372 0.0004967614703086644 -0.000434598160253141
0.006590327244685293 0.0004827667400275819 -0.0004298963545721541
0.00681561731333939 0.0004612606896032312 -0.0004245324696426497
0.007074646148101426 0.0004303176909588335 -0.0004174466968325704
0.007371589950448866 0.0003876035981351736 -0.0004075683178219796
0.007711168299776737 0.0003303256527939026 -0.0003936057393839327
0.008098667227429654 0.0002551705090305616 -0.0003742482594556271
0.008540055299130411 0.0001582253835988109 -0.0003481313002376357
0.009042082439606577 3.487831579403293e-05 -0.0003134514399641667
0.009612362832359765 -0.0001203041709455719 -0.0002679184041336429
0.01025952715457462 -0.0003137213682778423 -0.000208792236333352
0.01099336494304112 -0.0005528863542857872 -0.0001327408066973907
0.01182489761737661 -0.0008465755421090881 -3.575801510057594e-05
0.01276645271030253 -0.001204981023702513 8.663376945494045e-05
0.01383176247586438 -0.001639863034893277 0.0002394671407372418
0.01503601691957321 -0.002164699159445384 0.0004288397792088051
0.01639587899436151 -0.00279483249652703 0.0006620844367902053
0.0179295252496803 -0.003547598916853807 0.0009479248850352997
0.01965661690241106 -0.004442411969883502 0.001296907773208196
0.02159806038837845 -0.005500769375284329 0.001721701871043835
0.02377555259302814 -0.006746148687397676 0.002237176963522769
0.02621090695510682 -0.00820375933514669 0.002860526461441982
0.02892503960226768 -0.009900136173067722 0.003611789552749722
0.03193650084105243 -0.01186254595812585 0.004514486281525046
0.03525946109075086 -0.01411818756326081 0.005595944658650231
0.0389010023653003 -0.0166931812853591 0.006887341899412277
0.04285761125731873 -0.0196113817411302 0.008423498649053646
0.04711085636530521 -0.02289309189727205 0.0102423053735387
0.05162245254335422 -0.02655383570344867 0.01238366893130351
0.05632918412546423 -0.03060335063183908 0.01488789963514719
0.06113839362071743 -0.03504494032736064 0.01779316352295555
0.06592509154997037 -0.03987517881435617 0.02113192604840122
0.07053212739385616 -0.04508362228325619 0.02492670466026994
0.07477505354345504 -0.05065161960596856 0.02918568187421532
0.07845334497234255 -0.05654825790276968 0.03389917041411332
0.08136977697142053 -0.06271980423137387 0.03903790170331699
0.0833614719784638 -0.06906588540645973 0.04455400043906913
0.08435401910743615 -0.075389114065039 0.05038626101218247
0.08447769547389365 -0.08128890353124531 0.0564745689198632
0.08438239476306413 -0.0859270010070777 0.06280178910025218
0.08627893450935269 -0.0874667761982002 0.06955562484592372
0.09815693175415244 -0.08163660818373092 0.07801494587172546
0.1562463420075088 -0.05850499010721588 0.09825551009865348
0.5173504615183281 -0.006994388675007553 0.2710973955667984
0.8549991694427274 -0.1031144553779344 -0.2474680736922454
0.3234717461753868 -0.112626995577656 -0.0176061554907518
0.1748848715396046 -0.1035620356135829 0.009645361153742751
0.1081605865896274 -0.09058853884956274 0.01556178283583884
0.07174744299423803 -0.0781556862516541 0.01670983700151758
0.04955200694708192 -0.06722586049964684 0.0162946307627966
0.03504750535113135 -0.05782774964018702 0.01526452686614769
0.02514757541243501 -0.04978963188277059 0.01397970903671298
0.01821687968968663 -0.04291998960390508 0.01260541705216956
0.01330506182261952 -0.03704571151305137 0.01122882651976687
0.00981675757428163 -0.03201710779016316 0.009899746935753568
0.007356363025090898 -0.02770620816063114 0.008647251042610198
0.005649112897216437 -0.02400415304606645 0.007487591044925917
0.004497869555136504 -0.02081871173335293 0.006428463743905006
0.003757818757625811 -0.01807202840804635 0.005471747231112808
0.003320798613435911 -0.01569857150992056 0.00461546374770232
0.003105112971617747 -0.0136432927556271 0.00385521390468162
0.003048636840106343 -0.01185998365690084 0.00318520888617243
0.003104001198679403 -0.01030984138950237 0.002598868832998031
0.003235088022405527 -0.008960238496469644 0.002089137076728613
0.003414421172390329 -0.007783673278368376 0.0016487334532455
0.003621226168738641 -0.006756897112213637 0.00127053659063225
0.003839961874155161 -0.005860179773233989 0.0009478326334745622
0.004059201507336718 -0.00507670172557123 0.0006744313293116888
0.004270784218907921 -0.004392055185095734 0.0004445824612195365
0.004469133452821592 -0.003793839894412641 0.0002529102891977869
0.004650661511129852 -0.003271331771397039 9.449403920768067e-05
0.004813285448570221 -0.002815215229292124 -3.520669885929671e-05
0.004956073347358108 -0.002417361143306796 -0.0001403502622198969
0.005078990337887998 -0.002070646956999676 -0.000224556266956471
0.005182683243887651 -0.001768811422345936 -0.0002907610328001768
0.005268277994899965 -0.001506334499864155 -0.000341448611686817
0.005337261553627412 -0.001278337895077315 -0.0003789702398914993
0.005391372859195285 -0.001080511407980505 -0.0004054621294892835
0.005432454974651138 -0.0009090491102362358 -0.0004228472045853154
0.005462377701404755 -0.0007605903078102507 -0.0004329469376844584
0.005483006505143965 -0.0006321694219288717 -0.0004373642616194799
0.005496168842740966 -0.0005211723696339742 -0.0004373400619531329
0.005503624753715177 -0.0004252932971507051 -0.0004338356144442791
0.005507078280025429 -0.0003424988583288329 -0.0004277684158954126
0.005508193334348522 -0.0002710009190656056 -0.0004199552483161912
0.005508551239597372 -0.00020923412820375 -0.0004111181864048722
0.005509653663019764 -0.0001558357459715576 -0.0004021266773394563
0.005512949497893584 -0.0001096329841831901 -0.0003937161690818515
0.005519800747352759 -6.963114561194738e-05 -0.0003863292113571233
0.005531513070998656 -3.500039476370495e-05 -0.0003802927190479206
0.00554938902707614 -5.06595326554879e-06 -0.0003755666437051063
0.005574717442171027 2.070062107224144e-05 -0.0003717932514038191
0.005608824941739249 4.269091389337988e-05 -0.0003686293410288138
0.005653114963435267 6.116520439324647e-05 -0.0003656595957796032
0.005709048647231043 7.625553360070124e-05 -0.0003625805828608084
0.005778187045110694 8.79686021402922e-05 -0.0003594533003105641
0.005862203165786136 9.618489303406293e-05 -0.0003564525263830896
0.005962868449189674 0.000100652539413004 -0.0003538996447829529
0.006082110176876407 0.0001009765253553574 -0.0003522493598998144
0.006222040739513897 9.660201585064832e-05 -0.0003516708633637527
0.006384982312746507 8.679359926744396e-05 -0.0003521160350415545
0.006573560341861038 7.060919693165352e-05 -0.0003533248263668688
0.006790748236011358 4.686758006719604e-05 -0.0003545839737788649
0.007039895688447485 1.411986222976438e-05 -0.0003550616202923421
0.007324819922047158 -2.938176733116944e-05 -0.0003539429794194554
0.00764983502000893 -8.5723332881279e-05 -0.000350240822726122
0.008019766484065634 -0.0001573716397418715 -0.0003430230049756315
0.008440054165325709 -0.0002472245447308592 -0.0003313779320553803
0.008916834067487757 -0.0003586750042584889 -0.0003140373985184658
0.009457005840215018 -0.0004956849329772619 -0.0002893392204391636
0.01006837756427051 -0.0006628692716272725 -0.0002552919824441059
0.01075980881689775 -0.0008655792067123096 -0.0002094541044975105
0.01154128527852166 -0.001109983329770861 -0.0001488525673304581
0.01242399621613277 -0.001403145658235919 -7.022550488217001e-05
0.01342044193528897 -0.001753093478351481 3.001208329946874e-05
0.01454450065273642 -0.002168865709611248 0.0001562644770577426
0.01581146543883761 -0.002660541758273248 0.0003139213661744884
0.01723812260537729 -0.003239232670320596 0.0005094988975077753
0.01884278941212136 -0.003917017889138367 0.0007510336845649486
0.02064517379948008 -0.004706796521946961 0.001048363537849224
0.02266604421121137 -0.005622026958896955 0.001413220238594253
0.02492670384773081 -0.006676326351222105 0.001859371258474033
0.02744814459616277 -0.007882916932704051 0.002403184800995095
0.03024976132219764 -0.009253894343459107 0.003064348028376408
0.03334752275521481 -0.01079931321932307 0.003866322321877192
0.03675141723392814 -0.01252610859406537 0.004836544109256633
0.04046202310349298 -0.01443691465049689 0.006006399223053073
0.0444661293750173 -0.01652887391453353 0.0074108429333422
0.04873155799225216 -0.01879263234116335 0.00908752665516498
0.05320165193255998 -0.02121170356855084 0.01107530575625849
0.05779021438370779 -0.02376240158581712 0.01341166452009266
0.0623781772271361 -0.02641440590377358 0.01612891218740858
0.06681389063796619 -0.0291317023117985 0.01924942859611205
0.07091944578061367 -0.03187310157221056 0.02278053759059519
0.07450593387206132 -0.03459056919962829 0.026710147465284
0.07740141207342489 -0.0372222420429479 0.0310044175689378
0.07949854548498583 -0.03967489994532285 0.03560876400957438
0.08084040685464372 -0.04178719820224244 0.04045461556242964
0.08179964687880908 -0.04325863131022886 0.04547862798754611
0.08352536775190587 -0.04351876637401975 0.05067856676145604
0.08925936431123657 -0.04150772813245974 0.05632043645015011
0.1089541118184937 -0.03545140836854888 0.06398359182088788
0.1803470383024745 -0.02357483648486294 0.08468673080507882
0.5419533091473447 -0.01032081369927924 0.2578248040851124
0.8210694327498679 -0.06857251081757543 -0.2454628069356861
0.3208642962082665 -0.08645935758936699 -0.02342394434438345
0.1826995949019745 -0.08638838770611716 0.004249972304504608
0.1186671805253569 -0.07959949881874297 0.01142801203731932
0.08214594221604191 -0.07082770749620357 0.01369652326804369
0.05897800695419496 -0.06204484277244248 0.01413198257088371
0.04331896708187106 -0.05397325636790591 0.01372125914607164
0.03230847488451462 -0.04681687586057101 0.01288288910031836
0.02437938217848811 -0.04057652549917038 0.01183022335873115
0.01859506974277443 -0.03517845008923968 0.01068581527599686
0.01435488432441647 -0.03052622067564836 0.00952482371225828
0.0112514627654359 -0.02652186011027791 0.008394444802571071
0.008996568430167044 -0.02307434364824069 0.007323920997705428
0.00737982448778873 -0.02010266912350861 0.006330274956466128
0.006244233261414933 -0.01753648113712268 0.0054220718808709
0.005470823799947273 -0.01531557083042013 0.004602112497492878
0.004968533497671147 -0.01338890019692855 0.003869395186826767
0.004667252176734862 -0.01171345279484034 0.003220534624111089
0.004512881025437419 -0.01025308656818212 0.002650642188208289
0.00446367650358233 -0.008977468589409463 0.002153845792103159
0.004487487160508377 -0.00786111784226102 0.001723690364400717
0.004559667321504613 -0.006882587780478297 0.001353624247587022
0.004661477529940642 -0.006023766435605772 0.001037326535951616
0.004778850806939997 -0.00526929204264746 0.0007688859247452961
0.004901443348689615 -0.004606070700055161 0.0005427663790038821
0.005021867552297333 -0.004022883062393157 0.0003537630198843203
0.005135028737096948 -0.003510058517146932 0.0001970864977399739
0.005237586091736056 -0.003059214892498649 6.830235835784416e-05
0.005327551610243102 -0.002663042750502581 -3.664627051002908e-05
0.005403995183934178 -0.002315134616346186 -0.0001212807810046886
0.005466798872725069 -0.002009851623034866 -0.0001884581692298162
0.005516432475975501 -0.001742213040773637 -0.0002405919180663675
0.005553812835938602 -0.001507802763107276 -0.0002799531421690198
0.005580175989129361 -0.001302701492670142 -0.0003086059315765761
0.005596920981563668 -0.001123428451103099 -0.0003284276947601738
0.005605526163586818 -0.0009668891683890266 -0.0003412041592401639
0.005607508475151918 -0.0008303331895016029 -0.0003484954407592214
0.005604384165567718 -0.0007113209991425761 -0.0003515092418218842
0.005597638254910788 -0.0006076907208372121 -0.0003511807121562235
0.005588729404770036 -0.0005175290115040157 -0.0003483833088723471
0.00557909767818887 -0.0004391487044108497 -0.0003438918308171173
0.005570121471144317 -0.0003710696262949685 -0.0003384036611579966
0.005563117048403132 -0.0003119987224744081 -0.0003327579814970199
0.005559358392619656 -0.0002608171934124082 -0.0003276640470833621
0.005560044336058716 -0.0002165704405533148 -0.0003235592363097994
0.005566328998398605 -0.0001784559429643221 -0.000320764583556661
0.00557937027710462 -0.000145815582654391 -0.0003192308464337023
0.005600319901951256 -0.0001181306058692377 -0.0003186010118884754
0.005630374666535345 -9.501464399157153e-05 -0.0003185282055204499
0.005670811251707036 -7.620973164797867e-05 -0.000318591828799081
0.005722966559938755 -6.158411636076244e-05 -0.0003184965754874089
0.005788278750260113 -5.113113022978924e-05 -0.0003183145042856727
0.005868293411821813 -4.497074874729105e-05 -0.0003182409372966053
0.005964646979893114 -4.335579865814737e-05 -0.0003186435235187874
0.006079120981812976 -4.668053274188666e-05 -0.0003200351856529687
0.00621366429814599 -5.549289825751133e-05 -0.0003226534504133959
0.006370414277627027 -7.051336607643358e-05 -0.0003265354174524751
0.006551786282252714 -9.265744429111478e-05 -0.0003315081159576279
0.006760515074935105 -0.0001230622356396849 -0.0003369525383388855
0.006999683910726304 -0.0001631119683544757 -0.00034214615636151
0.007272810951434033 -0.0002144682788438244 -0.0003463895733893869
0.007583873284328268 -0.0002791078816686061 -0.0003488368918041605
0.007937318412836417 -0.0003593590124931257 -0.0003487327666162185
0.008338157424597167 -0.0004579436379217877 -0.0003453744814807386
0.008792036905488763 -0.000578033019190971 -0.0003377510151750962
0.009305300423398331 -0.000723305695957783 -0.0003245018962807756
0.009885129302953818 -0.0008980108558696637 -0.0003039896623718427
0.01053968780777667 -0.001107032830511762 -0.0002741981009431455
0.01127820322504235 -0.001355952198166649 -0.0002326441864572651
0.01211105200156403 -0.001651100824655081 -0.0001766400729689861
0.01304988365741774 -0.001999601498876349 -0.0001032896295155625
0.01410771163302204 -0.002409383602328182 -8.997752524506942e-06
0.01529898427143311 -0.002889175178525888 0.0001107056520580932
0.01663971129402841 -0.003448448723906209 0.0002613159879582532
0.01814757405561008 -0.004097307317337472 0.0004497317598447854
0.01984188825774806 -0.004846283363041669 0.0006845340165960349
0.02174340088317907 -0.005706022334040028 0.0009761120035909186
0.02387391512908911 -0.006686817931810651 0.001336842034944744
0.02625561669800442 -0.007797989358984638 0.001781706232936113
0.02890997411328465 -0.0090470614446801 0.002329096002752176
0.03185609145962159 -0.01043874602291853 0.003001395583091574
0.03510829780549004 -0.01197373629355413 0.003825337851164697
0.03867277548692807 -0.01364736858767966 0.004832148149550947
0.04254309255960632 -0.01544824283564501 0.006057339843397193
0.04669472826978729 -0.01735700114323984 0.007539994087325734
0.0510790198696765 -0.01934547681209712 0.009321352122082478
0.05561735429913574 -0.0213764920954835 0.01144216237129898
0.06019705902928278 -0.0234045075134819 0.01393854918705904
0.06467127931983752 -0.02537708569146704 0.01683661666471172
0.06886594784833949 -0.02723670278594706 0.02014636093306839
0.07259778813835768 -0.02892162808449717 0.02385614226922123
0.07570850039749631 -0.03036358956663961 0.02792923792305502
0.07812383809941302 -0.03147878156923484 0.03230420026964201
0.07995819634081808 -0.03214789106509561 0.03690206261558943
0.08172172596483074 -0.03218141782125953 0.04164823615530669
0.08479910319962818 -0.03127372096731406 0.04653583816882051
0.09275129302267122 -0.02898212916736492 0.05185035058472149
0.1156046677698394 -0.02489016460479657 0.05923917430529582
0.1892319709209083 -0.01947706130623775 0.0796729135492215
0.5414195784516713 -0.01732423115813862 0.2488455056421726
0.7834531638735972 -0.05064746027796289 -0.2419288924531292
0.3116843376082052 -0.07197141513544671 -0.02878103716198738
0.1844715128669593 -0.0765169852777725 -0.001345895460603214
0.1250335662548057 -0.07370754117317434 0.006798527583497652
0.09000690664452345 -0.06767153189006805 0.01016014957952567
0.06689311342053059 -0.06056484640176722 0.01153658479021303
0.0506804211041362 -0.05345884098828771 0.01186247550936877
0.0389032421519259 -0.04683708320229207 0.0115760954900625
0.0301742094014294 -0.040881578779031 0.01092764673416453
0.02363477014712111 -0.03562667445546253 0.01007519381448926
0.01871455615265048 -0.03103829605776653 0.00912310255860295
0.01501401344973368 -0.02705394669620625 0.008141126133010429
0.01224229474240184 -0.02360265854074219 0.007175409807572257
0.0101818902768589 -0.0206146958921686 0.006255425829465483
0.008667092016207936 -0.01802597082657011 0.005398796008669138
0.007570111506849694 -0.01577970929987764 0.004614843282156104
0.006791667984165713 -0.01382671742365176 0.003907220333516141
0.006254331613050472 -0.01212494351192495 0.003275835295053288
0.005897664890497026 -0.01063873671984076 0.002718111481119283
0.00567453740866467 -0.009338008560657887 0.002229784363715533
0.005548277280833516 -0.008197399337680237 0.001805501829213887
0.005490476264384758 -0.007195527830816595 0.001439455424788459
0.005479279987289271 -0.006314324534582662 0.001125817813650591
0.005498051070352565 -0.005538462366929348 0.0008590069073780791
0.005534325942799806 -0.004854879429501837 0.0006337194244816389
0.005578966747470611 -0.004252385308695846 0.0004449184137397564
0.005625431132863545 -0.003721333061115678 0.0002879259803059518
0.005669177981024084 -0.00325335831454755 0.0001583830525881149
0.005707217861351029 -0.002841161734723271 5.229924102168819e-05
0.005737775105058299 -0.002478338107690444 -3.378266413350396e-05
0.005760011511957519 -0.002159243615247774 -0.0001026736040639128
0.005773782059362161 -0.001878885768263399 -0.0001567493486530714
0.005779472405651007 -0.001632827935716051 -0.0001982316127259336
0.005777851932505689 -0.001417122117463379 -0.0002291423813681104
0.005769908526423329 -0.001228251112756026 -0.0002513445066460446
0.005756757542306677 -0.001063078281884296 -0.0002666158727011966
0.005739590210678657 -0.0009188069914451739 -0.0002764961876762291
0.005719627580004977 -0.0007929502036903926 -0.000282180620500879
0.00569809071940732 -0.0006833009706032094 -0.0002845982708162809
0.005676201050594715 -0.0005879040175795332 -0.000284593773032664
0.00565518049010555 -0.0005050342264506509 -0.0002829103835709243
0.005636209542970624 -0.000433178168988196 -0.0002802306680928817
0.005620424488410862 -0.000371013343487156 -0.000277370686866374
0.005608929483812207 -0.000317394401703928 -0.0002750189172868239
0.00560276450070147 -0.0002713428929882692 -0.0002736147928555949
0.005602935651655378 -0.000232036091785793 -0.0002734782735260914
0.00561045815354076 -0.0001987988115362392 -0.0002745538253047554
0.005626346957751673 -0.0001710987852873068 -0.0002764881649042548
0.005651668450788649 -0.000148540733972312 -0.0002789292517409176
0.005687570832253764 -0.0001308619759850854 -0.0002814448864047243
0.005735263638204997 -0.0001179313538997004 -0.000283743495755811
0.00579605822327975 -0.0001097495394577153 -0.000285905796171078
0.005871368660476751 -0.000106451075018137 -0.0002881438180976139
0.005962692924002466 -0.0001083098147652108 -0.0002908684953522726
0.006071665318802284 -0.000115746640410034 -0.0002946453977825248
0.006200071631908832 -0.0001293415491530261 -0.0002997653100822713
0.006349866343618746 -0.0001498518148776291 -0.0003063330938049849
0.006523260086656049 -0.0001782322879625764 -0.0003142495008863179
0.00672275749074744 -0.0002156590038555031 -0.0003229718166756724
0.006951183903126946 -0.0002635553495878319 -0.0003318599654138085
0.007211766984044836 -0.000323624519063532 -0.0003403072354368406
0.007508158305583369 -0.0003978849970873888 -0.0003475895133870412