# OOMMF: rectangular mesh v1.0
# Segment count: 1
# Begin: Segment
# Begin: Header
# Title: 
# Desc: time = 2.1391408164374192e-10
# Desc: stepsize = 3.092892981009027e-13
# Desc: step = 480
# meshunit: m
# valueunit: (none)
# valuemultiplier: 218607.1153915052
# xmin: 0
# ymin: 0
# zmin: 0
# xmax: 4e-07
# ymax: 1e-07
# zmax: 4e-09
# ValueRangeMaxMag: 0.9999999999999999
# ValueRangeMinMag: 0.00386706840227677
# meshtype: rectangular
# xbase: 2e-09
# ybase: 2e-09
# zbase: 1e-09
# xstepsize: 4e-09
# ystepsize: 4e-09
# zstepsize: 2e-09
# xnodes: 100
# ynodes: 25
# znodes: 2
# End: Header
# Begin: Data Text
0.8315199562143794 -0.5375343943778164 -0.1401093373588466
0.2492078697968224 -0.3674986516482039 0.06853335186004415
0.1169468434430848 -0.2954309377123386 0.08306321404123537
0.06275610719955904 -0.2496395966028057 0.07965775769438022
0.03474857761345977 -0.2141200057269257 0.0727801097747684
0.01859544614989402 -0.1844227069155616 0.06518509775561721
0.008771305624275185 -0.1589202752940747 0.0577095133958385
0.002679389620961477 -0.1368158154880227 0.05066622152944714
-0.001069015448426062 -0.1175991248136842 0.04417637031350379
-0.003285882286284337 -0.1008806353524387 0.03827675392499822
-0.004477112177992923 -0.08633650238265923 0.03296316420820235
-0.004972860071288278 -0.07368852163922218 0.02821059547721915
-0.004996096261355363 -0.06269525490124517 0.02398351700633415
-0.004701262540390763 -0.05314666767492544 0.02024190320524808
-0.004197347219690069 -0.04486001596297072 0.01694463662978803
-0.003562267430559118 -0.03767634795306753 0.01405126464819884
-0.002852170782583132 -0.03145731102173154 0.01152307228866358
-0.002107629201869604 -0.02608229980723569 0.009323501410559369
-0.00135789461296378 -0.02144601495051203 0.007418447680713313
-0.0006239031377751023 -0.0174563070499578 0.005776296387627469
7.964504420864787e-05 -0.01403234646773581 0.004367810719763798
0.0007427838221708893 -0.0111031228026374 0.003166365335532973
0.001359111837563096 -0.008606155835552704 0.002147902316659883
0.001924961022562241 -0.006486422039018531 0.001290451618506214
0.002438762362400372 -0.004695379031880387 0.0005742105054650186
0.002900496116778948 -0.003190121124493231 -1.861949348603882e-05
0.003311306791095623 -0.001932708029147073 -0.0005041447420143792
0.003673213198689925 -0.0008895754187393604 -0.0008967872497742783
0.003988894423581773 -3.103589485981749e-05 -0.00120948886076797
0.004261516374159792 0.0006691033240369854 -0.001453744697613299
0.004494533959977032 0.001233922761132174 -0.001639767256210128
0.004691548046151809 0.001683727853781055 -0.001776785461739746
0.004856205738508083 0.002036351106987451 -0.001873000555750817
0.004992116891888318 0.002307415269088723 -0.001935565842078476
0.005102821088070334 0.002510512502570498 -0.001970742646989879
0.005191742841838813 0.00265741802383248 -0.001983833555205881
0.005262139152085346 0.002758286199744171 -0.001979450066587907
0.00531706713786341 0.002821859671736941 -0.001961563564751621
0.005359357477435727 0.002855661886198438 -0.001933480718831533
0.005391653607369806 0.002866113062387235 -0.001898017785422878
0.005416429664775733 0.002858658642831923 -0.001857377629292052
0.005435990565982658 0.002837889242113213 -0.001813424384452759
0.005452487226340627 0.002807664333787627 -0.001767694143826802
0.005467910041142041 0.002771229720635866 -0.001721440523988413
0.00548414485433517 0.002731278877820115 -0.001675702345085099
0.005503018358366172 0.002689979034976695 -0.001631155907716432
0.005526316684405974 0.002649024195628692 -0.001588370143528424
0.005555792291373528 0.002609697589988967 -0.001547760293771915
0.005593176199008821 0.002572900289140363 -0.001509599582138073
0.0056402469996329 0.002539131997842309 -0.001473961735154511
0.005698860182756013 0.002508489260610211 -0.001440700429167065
0.005770970482709038 0.00248068848507462 -0.001409641337929147
0.005858647295296738 0.002455034266848529 -0.001380410700959498
0.005964103203770123 0.002430388173749044 -0.001352454770027047
0.006089768454831354 0.002405152338002319 -0.001324977103310687
0.006238331291255983 0.002377238250826682 -0.001297010544932724
0.006412778446186898 0.00234399301013312 -0.001267442483860327
0.006616422972010929 0.002302099893363378 -0.001234756188089801
0.006852983849990512 0.002247513648551543 -0.001197128636181292
0.007126692359302765 0.00217536478322591 -0.001152304390920806
0.00744235139814286 0.002079789580018421 -0.00109762879455735
0.007805422926161612 0.001953736164197512 -0.001029921846362363
0.008222100936342321 0.001788744934041458 -0.0009452097549512732
0.008699427299659385 0.001574707101389052 -0.0008387572683605173
0.00924543396295281 0.001299600472475769 -0.0007047583895354797
0.009869265128902757 0.0009491315224748996 -0.0005363633543316159
0.01058130973768724 0.0005063233111756905 -0.0003254316621245255
0.01139329664613695 -4.894516497644673e-05 -6.213825453396929e-05
0.01231843028523804 -0.0007404271562591811 0.0002651447310239858
0.01337154434599132 -0.001596014924879027 0.0006702441665020458
0.01456921988947146 -0.002648365429903698 0.001169328374697834
0.01592988569448653 -0.003935538763734735 0.00178127443581455
0.01747381456833559 -0.005501706466932046 0.002528252710168907
0.01922304829518543 -0.007397878950024962 0.003436066904902496
0.02120128788737809 -0.009682565495702816 0.004534724833792459
0.02343359023576444 -0.01242241826762658 0.005859125971016621
0.02594583689362457 -0.01569273075093543 0.007449501824123436
0.02876390449578072 -0.01957778195823223 0.00935200736190916
0.03191239633668225 -0.02417097163432741 0.01161905683420206
0.03541288327699452 -0.02957447022114101 0.01430983264354128
0.03928146579758152 -0.03589829334151857 0.01749068977290109
0.04352564793490508 -0.04325875957807685 0.02123437704067066
0.04814054145713363 -0.05177615384281049 0.02561916149777553
0.05310425362179957 -0.06157158370898924 0.03072746653875976
0.05837277469979577 -0.07276302566967369 0.03664315044445875
0.06387491469217496 -0.08546066373096428 0.0434479935614673
0.06950785160340638 -0.09976172382191702 0.05121738162574715
0.0751343571652284 -0.1157448791610733 0.06001489109182371
0.08058279305347321 -0.1334643967642517 0.06988640542660055
0.08565061503622932 -0.1529437864062033 0.08085425796821806
0.09011172923443556 -0.1741675436410374 0.09291276735215769
0.09372702048393813 -0.1970680711102691 0.1060257019141759
0.09625671131085382 -0.2215011745128013 0.1201258438923512
0.09747461245658125 -0.2471948976962997 0.1351177534368763
0.0971921189076345 -0.2736354600648054 0.1508834481675054
0.09533390867688543 -0.2997906542396006 0.1672957338053903
0.0922596274144946 -0.323344292810732 0.1842814483825157
0.09039653944736192 -0.3380919637151288 0.202245598533246
0.1056834232073879 -0.3216470349848421 0.2265339493355826
0.3326671279669425 -0.1332130543462243 0.3581484110135461
0.8778140620258703 -0.1883842963925886 -0.2404931096115553
0.3093924289240811 -0.1718281484923305 -0.006461403933609622
0.1560623469447418 -0.1430282830685871 0.01866274012345883
0.09138347210992792 -0.1197478468359205 0.02271831987586249
0.05759589270195148 -0.1014243189107872 0.02250780468636017
0.03763700857343766 -0.08652139289556735 0.02106673589469193
0.02495771083103339 -0.07409451619132959 0.01922759532877763
0.01656108603466229 -0.06358554606276849 0.01728598157778822
0.0108846842261557 -0.05463152207469196 0.01536931603471222
0.00702835931195357 -0.04697031096451591 0.0135399900532971
0.00443254503237695 -0.04039790259130597 0.01183014541300163
0.002728928626883701 -0.03474858528907909 0.01025547069115
0.001664614777821428 -0.02988485543905389 0.008821541025856573
0.001060536781722359 -0.025691489218955 0.00752771496092288
0.0007870234694161817 -0.02207150048334267 0.006369540901514874
0.0007486695978628371 -0.01894306142518382 0.005340145481142269
0.0008745372315815565 -0.01623701170832248 0.004431252747356079
0.001111546624640639 -0.01389477886800449 0.00363372531154584
0.001419868873919033 -0.01186663731582333 0.002938107386536791
0.001769619069358334 -0.01011024769620662 0.002334913138984548
0.002138497249015003 -0.008589440732018795 0.00181475377997145
0.002510057175340548 -0.007273221119035197 0.001368825181277327
0.002872351518588224 -0.006134936551442715 0.0009890800516120628
0.003216957444128896 -0.005151587582522738 0.0006679138383810841
0.003538232062751276 -0.004303253103077904 0.0003984011011712401
0.003832648059140463 -0.003572611564847612 0.0001742717358116339
0.004098309357543474 -0.002944545325181685 -1.025852419448399e-05
0.004334582863166538 -0.002405822887813768 -0.000160377341361945
0.00454181147195498 -0.001944837500332192 -0.0002807949297126902
0.004721094357366637 -0.00155139407411688 -0.0003756781607088162
0.004874062157394206 -0.001216528267555027 -0.0004487590801192203
0.005002704391346506 -0.0009323503744018644 -0.0005035708254403653
0.00510923889188369 -0.0006919128526246986 -0.0005433130276921554
0.005195990226262135 -0.0004891058149339611 -0.0005707632040525064
0.005265338548988983 -0.000318570063212843 -0.000588365410584213
0.005319673342752245 -0.0001756179762724265 -0.0005981052376240406
0.005361340268354512 -5.61581831452693e-05 -0.0006017451943000809
0.005392604785743141 4.337715440767686e-05 -0.0006008122621043309
0.005415597585653244 0.0001260954953529903 -0.0005965137394269193
0.005432336074887199 0.0001946909538301246 -0.0005898715411175827
0.005444740574339061 0.0002514885320155412 -0.0005815503881555642
0.005454633723250396 0.0002984869606295928 -0.0005721248822298621
0.005463755547674203 0.0003374005788964757 -0.0005620561586657683
0.005473737718794553 0.0003696956971860979 -0.0005517106117193593
0.005486134631659977 0.0003966150048136203 -0.0005414042705844463
0.005502464233416059 0.0004191916211404651 -0.0005312271987766255
0.005524237082167731 0.0004382656629654478 -0.0005213148130070531
0.005552957266351234 0.0004545025535251331 -0.0005117809837600029
0.005590109637152298 0.0004684004861787763 -0.0005027217097444154
0.005637220733006622 0.0004802888837244072 -0.0004941457186220735
0.005695897933912804 0.0004903269224104617 -0.0004859530692329779
0.005767845494779761 0.0004985015956479182 -0.0004781513835000909
0.005854865008780003 0.0005046221556396463 -0.0004706719678253103
0.005958886381549013 0.0005083114863798369 -0.0004633993479202015
0.006082043530937963 0.0005089949279815144 -0.0004561067609323155
0.006226696765263297 0.0005058851260254224 -0.0004485591205305003
0.006395456691368957 0.000497960231537624 -0.0004405750126093991
0.006591213004373714 0.0004839362634218311 -0.0004317633859192854
0.006817211271018547 0.0004622344847594341 -0.0004216556507297718
0.007077131426372272 0.0004309403130872937 -0.0004096099080872797
0.007375118857308734 0.000387746431256083 -0.0003949111525092107
0.007715859017297892 0.0003298856508854354 -0.0003767037088433978
0.008104636125610522 0.0002540556593147139 -0.0003537640404720474
0.008547434616298645 0.0001563317362071698 -0.0003246228735527217
0.009051050887920077 3.206751628530048e-05 -0.000287335764704008
0.009623175105236229 -0.0001242199054877246 -0.0002396450701701103
0.01027249891345859 -0.0003189836147304176 -0.0001788780384676183
0.01100879255455635 -0.0005597868789604541 -0.000101677078031349
0.01184302874971492 -0.0008554517939851144 -4.057414147545792e-06
0.01278750902641643 -0.001216213982625272 0.0001188038649254175
0.01385595396796498 -0.001653882960425343 0.0002724862824098832
0.0150635936211227 -0.002181999051273691 0.0004634292586439101
0.01642716263951789 -0.002815978511691906 0.0006992739652718862
0.01796485998720437 -0.003573225777118836 0.0009889329556920711
0.01969629537653007 -0.004473196544371808 0.001342902325474354
0.02164226446347506 -0.00553739034656154 0.001773714589704322
0.02382433940129319 -0.006789247241406807 0.002296099919750811
0.02626419839549067 -0.008253912179636794 0.002927382661547612
0.02898259421085478 -0.009957842493740069 0.003687724080974793
0.03199791747287672 -0.01192821552425256 0.004600661673665824
0.03532410906334379 -0.01419211557399375 0.00569374533660622
0.03896790556097515 -0.01677550977537861 0.006998178475093103
0.04292540777004494 -0.01970206115560011 0.008548673029247441
0.04717775484386691 -0.0229918585688041 0.01038316204090342
0.0516861832853773 -0.02666021320681299 0.01254140792778765
0.05638698672762627 -0.03071667200634614 0.01506316689872464
0.06118697376579298 -0.03516438519033361 0.01798582968920303
0.06596064595951372 -0.03999982533568477 0.02134094793693551
0.07055054126544583 -0.04521251890102961 0.02515015728751676
0.07477224444432921 -0.05078387703460649 0.02942081575619157
0.07842572352227639 -0.05668314630524906 0.03414258804894962
0.08131464489316911 -0.06285682724758869 0.03928572781393397
0.08327722822516094 -0.06920482250140603 0.04480182407079551
0.0842401939966715 -0.07553005711227258 0.05062963408991558
0.08433449333281562 -0.08143233870083685 0.05670983805037426
0.08420936381786999 -0.0860740420433669 0.06302613539745047
0.08607204689356723 -0.08761978657165749 0.0697667972427289
0.09790031481520758 -0.08180065916879903 0.07820975070840984
0.1558802344049047 -0.05869023194463409 0.09841631490405524
0.5165615007414941 -0.007212979597083563 0.2710333134005387
0.8536681511740688 -0.1032368869571283 -0.2466630478300529
0.3230564354867032 -0.1128949978353676 -0.0171111722450613
0.1747262585413001 -0.1038892702007533 0.01007020199128255
0.1080981894151407 -0.09092471379511091 0.01594464896990749
0.07172161936812438 -0.07847485454793865 0.01705836254372054
0.04953765384064833 -0.06751677864071161 0.01661227043268801
0.03503382118201329 -0.05808703834226314 0.01555344756608153
0.02513028734438466 -0.05001783611842749 0.01424173042100172
0.01819472453060351 -0.04311944597965221 0.01284238777454249
0.01327810351104862 -0.03721942817820753 0.01144253058498704
0.009785675718468532 -0.03216819357150372 0.01009194518566417
0.007322087168078282 -0.02783759366028536 0.008819654254843457
0.005612560229389944 -0.02411847302294422 0.007641584008167667
0.004459826436767354 -0.020918272399338 0.006565214049386646
0.003718913452532318 -0.01815881288924176 0.005592524050688543
0.003281529666547586 -0.01577426605893905 0.004721767493409263
0.003065911283619589 -0.01370932456943103 0.003948775837659993
0.003009916912265834 -0.01191756079215431 0.003267730069900911
0.003066157110637951 -0.01035999060374426 0.002671873325628454
0.003198452824859158 -0.009003835887167589 0.002153949848907082
0.003379263806527044 -0.007821469376950812 0.001706442343631217
0.003587778065782975 -0.006789542414483732 0.001322117757439587
0.003808411188839712 -0.005888248722917789 0.0009942765771386833
0.004029706523062902 -0.005100713273420783 0.0007165062910511362
0.004243486378025932 -0.004412489563699242 0.0004829284968500576
0.004444101031377989 -0.00381114605119592 0.0002881911423557509
0.004627867261263811 -0.003285925266157345 0.0001273280645555917
0.004792635374846634 -0.002827474206016143 -4.117244342728159e-06
0.004937450384754688 -0.002427625452381876 -0.0001101907509187508
0.005062293625776449 -0.002079221116311064 -0.0001944595527288238
0.005167830855851902 -0.001775966528505494 -0.0002601212077009006
0.005255214842208018 -0.001512308865021107 -0.0003102313639393784
0.005325930318873784 -0.001283336657990133 -0.0003475687683548541
0.005381651603742291 -0.001084703739665065 -0.0003745428337369914
0.005424178203267139 -0.0009125674583929421 -0.0003932739813570016
0.005455382502267156 -0.0007635344584807513 -0.0004054607977106966
0.005477153627104203 -0.0006346118450134093 -0.0004126131669808823
0.005491354963029342 -0.0005231617527668721 -0.0004160380024771429
0.005499758923351885 -0.0004268614423273936 -0.0004167539747172539
0.005504061082858359 -0.0003436741436858751 -0.000415617849114559
0.005505894072601699 -0.000271821121442043 -0.0004131445999538597
0.005506826361716402 -0.0002097540769552375 -0.0004097732615831318
0.005508375293636016 -0.0001561296727721348 -0.000405846180672213
0.005511974164425176 -0.0001097867984493881 -0.0004016338584269059
0.005518993811123263 -6.973022658726409e-05 -0.0003973777125639162
0.00553078036986931 -3.512260962363884e-05 -0.0003931111613463306
0.005548686318773114 -5.274020636497689e-06 -0.0003889265141796538
0.005574068398933526 2.036893075952974e-05 -0.0003849138398817742
0.005608266769510133 4.222795074518188e-05 -0.0003811681120559967
0.005652660942257988 6.059244184036367e-05 -0.0003777098861968064
0.005708709754854701 7.561755050172834e-05 -0.0003744620684287409
0.005777966790724134 8.73222183429532e-05 -0.0003714656585325106
0.005862076733966896 9.558539328801592e-05 -0.0003687024521824384
0.00596280386128189 0.0001001400226432826 -0.0003661236279787445
0.00608210552166858 0.0001005627515401001 -0.000363580747957712
0.006222150853553326 9.626222506718487e-05 -0.0003609424948071314
0.006385340024069468 8.646633970543485e-05 -0.00035816472736376
0.006574327595639955 7.020316827837738e-05 -0.0003550280999034229
0.00679209339383821 4.627607650122953e-05 -0.0003512678122825465
0.007042012644298315 1.323458758853025e-05 -0.000346480369664221
0.007327877656464974 -3.06632355375765e-05 -0.0003402378307672607
0.007653964545806143 -8.749399940291787e-05 -0.0003320251496208009
0.008025083734465286 -0.0001597192188668275 -0.000321012686095129
0.008446673265541844 -0.0002502441793524215 -0.0003061897337883228
0.008924900922258469 -0.0003624824433523356 -0.0002861445833111905
0.009466734917715469 -0.0005004254770146335 -0.0002592490237994437
0.01008004480867393 -0.0006687207568783484 -0.000223584866218932
0.01077367387983847 -0.0008727503633469901 -0.0001766828684982696
0.0115575613288225 -0.001118712303964605 -0.0001156041655694947
0.0124428710831412 -0.001413697706954113 -3.674707256375805e-05
0.01344208702441564 -0.001765760235722468 6.40447087194987e-05
0.01456912003229287 -0.002183968434250627 0.0001915404084372577
0.01583933378311193 -0.002678432657484672 0.0003514464778773033
0.01726955005845415 -0.003260289166661161 0.0005504573781815225
0.01887806185273433 -0.003941625779940014 0.0007965550305929322
0.02068449722843786 -0.004735326815940842 0.001099451090825999
0.02270952643997682 -0.005654813021213937 0.001470733683645808
0.02497433779213062 -0.006713642178545142 0.001924297040762843
0.02749977524561559 -0.007924957354972667 0.002476648915749995
0.03030509177159907 -0.009300756778628766 0.00314751231315812
0.03340605266438863 -0.01085097624562678 0.003960583412441728
0.03681232981875729 -0.01258240694727033 0.004943350020698289
0.04052413632119602 -0.0144975188598872 0.006127131176076434
0.04452783363934775 -0.01659328248449269 0.007546979498353123
0.04879074399409762 -0.01886018272913122 0.009240446450548598
0.05325567726726787 -0.02128160612662591 0.01124585274811439
0.05783583830453627 -0.02383380031440297 0.01359991072770568
0.06241156252162689 -0.02648646717292979 0.01633399448781935
0.06683078534318886 -0.02920372434511702 0.01946956200227778
0.07091552314263024 -0.03194463502827474 0.02301307008205041
0.07447727245476495 -0.03466153438687111 0.026951708235514
0.07734494054748758 -0.03729300764986328 0.03125107510334996
0.07941229193395291 -0.03974630099332523 0.03585600804465756
0.08072354331040146 -0.0418605145224645 0.04069788523288689
0.08165197631810818 -0.04333557037137364 0.04571417653283462
0.08334580832964389 -0.04360152370332445 0.05090357111557657
0.08904265413963841 -0.04159924102450262 0.05653269434324529
0.1086820491064874 -0.0355558551817451 0.0641796424349295
0.1799569282469474 -0.02369813737765442 0.08484700523360431
0.5411265796188597 -0.01047308556630739 0.2577463139017087
0.8195608465040317 -0.06864601199832998 -0.2446604991769203
0.3203608374702532 -0.08663937756309603 -0.02296532602256632
0.1825035244316805 -0.08662557453585118 0.004637701944711648
0.1186003326805615 -0.0798601775501602 0.01177954643713875
0.08213429122641652 -0.07108862941191615 0.01402118825519835
0.05898678437267395 -0.06229219313711417 0.01443283978627079
0.0433316008478957 -0.05420010535301743 0.01399927092555634
0.03231750824452562 -0.04702067881384429 0.01313850551442971
0.02438193978581258 -0.04075728111582395 0.01206406355118314
0.01859050954792249 -0.03533750238184824 0.01089866486839501
0.01434368481701609 -0.0306655319319069 0.009717671928120878
0.01123462237421572 -0.02664358718375236 0.00856844455929236
0.008975202441542032 -0.02318060396914731 0.007480073003398475
0.007354969033585505 -0.02019542206309656 0.006469478030317174
0.006216777190348481 -0.0176174752204553 0.005545408791342897
0.005441511514638083 -0.01538633210714771 0.004710960444662025
0.004938014371031249 -0.0134507458143605 0.003965411584542818
0.004636128997487539 -0.01176751291856925 0.003305386826427346
0.004481707816129172 -0.01030032700675809 0.002725841452473771
0.004432921940819438 -0.009018712390291091 0.002220719528661321
0.004457531531095491 -0.007897067723641266 0.001783343392403686
0.004530828827279923 -0.006913850339838013 0.001407047317024041
0.004634010275561528 -0.006050874493359336 0.001085523643911983
0.004752961752608881 -0.00529272322029184 0.0008126547941042616
0.004877311258868779 -0.004626260779959099 0.0005827818779483963
0.004999595648366735 -0.004040231453653748 0.0003907143613751185
0.005114626837512069 -0.003524927703953257 0.0002316087727669332
0.005218997934179602 -0.00307192992515364 0.0001011074240417174
0.005310694257365983 -0.002673894765898429 -4.740288753536637e-06
0.005388798015083299 -0.002324387623164551 -8.941578000014914e-05
0.005453210100635457 -0.002017743490797055 -0.0001560369949287925
0.005504427642918804 -0.001748953586023384 -0.0002075836157696128
0.00554336648326493 -0.001513572551367632 -0.0002467732407947143
0.005571200009550958 -0.001307648941481276 -0.0002759641272636907
0.005589281452091452 -0.001127670159267122 -0.0002972326338181801
0.005599085061540939 -0.0009705161489816979 -0.0003122343368324773
0.005602146214617433 -0.0008334189099658052 -0.0003224308758446904
0.005600013869042992 -0.0007139250617054431 -0.0003290840420519498
0.00559417827234102 -0.0006098615838995962 -0.00033317517147648
0.00558607925604164 -0.0005193110343678057 -0.0003355242803058928
0.005577118289063365 -0.0004405889409887135 -0.0003366076373420006
0.005568656678985065 -0.0003722210674855509 -0.0003368198129231092
0.005562027004518869 -0.000312923308667709 -0.0003364591370832646
0.005558496234291411 -0.0002615823185409134 -0.0003357632752425544
0.005559279848356715 -0.0002172404181217242 -0.0003349516416574511
0.005565576564432271 -0.0001790897803388711 -0.0003340451810441019
0.005578600830850281 -0.000146464137851514 -0.0003331245061014231
0.00559957924185571 -0.0001188301872029348 -0.0003322779997246827
0.005629724531636926 -9.57825725858987e-05 -0.0003316144167706597
0.005670286506540715 -7.704411455818781e-05 -0.0003311721024716147
0.00572259256699648 -6.246805706925362e-05 -0.0003308931489200888
0.005788063510046163 -5.203902492976237e-05 -0.0003308360823936436
0.005868206311176172 -4.587654572098545e-05 -0.0003310090441488238
0.005964639305517562 -4.424087200715176e-05 -0.0003313962420754724
0.006079163606754843 -4.754338758924823e-05 -0.0003318823990716392
0.006213781195718826 -5.635725494592163e-05 -0.0003323819690885421
0.006370710487772242 -7.142850252789353e-05 -0.0003329168718554241
0.00655240343896686 -9.369510683099714e-05 -0.0003333569188728621
0.006761612044976752 -0.0001243094739786848 -0.0003335412073080633
0.007001453908725962 -0.0001646632532054533 -0.0003331848241967689
0.00727542785077712 -0.0002164199920119863 -0.0003320050101121566
0.007587473834888693 -0.0002815525417385749 -0.0003296599971210432
0.007942016879449253 -0.0003623870374677582 -0.0003255171571975528
0.008344055346268647 -0.0004616529420103397 -0.0003187899429144028
0.008799258608757903 -0.0005825368823614975 -0.0003083204721557708
0.009314033225534766 -0.0007287386495638568 -0.0002927767477500739
0.009895621467751104 -0.0009045328991038822 -0.0002706007555137653
0.01055217260468842 -0.001114830199834401 -0.0002397470648266046
0.01129286880210161 -0.001365236621514921 -0.0001977750411347955
0.01212806378114809 -0.001662105098389737 -0.0001416590124387538
0.01306939118526899 -0.002012576158269196 -6.790755521793067e-05
0.01412989655249752 -0.002424597038477821 2.746417873935451e-05
0.01532410133728239 -0.002906911749715007 0.0001492580990717777
0.01666806040080418 -0.0034690042668669 0.000303144232241591
0.01817944904019415 -0.004120977062830486 0.0004959672347567905
0.01987752360280762 -0.00487334417963006 0.0007361949774405172
0.02178295329191728 -0.005736714250707252 0.001034070333307117
0.02391744825437605 -0.006721322255886633 0.001402092394304384
0.02630306658484001 -0.00783640578956582 0.001855398516209792
0.02896115416931606 -0.009089388237080259 0.002412428976250534
0.03191063434668616 -0.01048485812014566 0.003095810962057192
0.03516554163679701 -0.01202336067703091 0.003932358650057596
0.03873170623049399 -0.01370006455121751 0.004953276758544478
0.04260226692898432 -0.01550339194539379 0.006194222697149949
0.04675217989464916 -0.01741381423414978 0.007694210568064101
0.0511321990251194 -0.01940302580188242 0.00949396620170547
0.0556630297489384 -0.02143377533235609 0.0116334712414362
0.06023128799324212 -0.0234605528479233 0.01414787714346155
0.06468957176480407 -0.02543108138447464 0.01706229864002035
0.06886360385727655 -0.02728814281441502 0.02038580280986458
0.07257039968222802 -0.02897046048658024 0.02410593649901007
0.07565245509801427 -0.03041033210468247 0.02818528706414537
0.07803663790530782 -0.03152456707872124 0.0325617298460468
0.07983854887939408 -0.03219444407147472 0.03715619009462145
0.08156902761925949 -0.03223099194105496 0.04189487706298455
0.0846118305448512 -0.03132904739938594 0.046771876640133
0.09252353952142434 -0.0290464461078053 0.05207330405006123
0.1153172179774369 -0.02496738195954283 0.05944507785128673
0.1888201595886832 -0.01957236395357431 0.07984057950387698
0.540550602123662 -0.0174491902641864 0.248759995249506
0.7818253514246718 -0.05069495971773344 -0.2411285246041613
0.3111105441889559 -0.07209386995232606 -0.02834809738487494
0.1842329023259636 -0.07669089002169506 -0.0009855462098086458
0.1249483935342883 -0.07391269876893265 0.007125441040812677
0.08999494441322421 -0.06788932689969873 0.01046503662119266
0.0669130009333942 -0.06078110426825648 0.01182306309635956
0.05071034098164746 -0.05366437388030579 0.01213109807679013
0.03893214677878663 -0.04702682333985571 0.0118264510673822
0.03019699636320589 -0.04105337173845147 0.01115938710536084
0.02364953167713855 -0.03578022514869356 0.01028821502108634
0.01872113111305311 -0.03117439403901121 0.009317658754329404
0.01501314973132185 -0.0271739435225304 0.008317808124028714
0.01223508513832742 -0.02370813452361201 0.007334807728257849
0.01016947258366261 -0.02070725996630872 0.00639814321358034
0.008650516524818066 -0.01810714862855078 0.005525708422307193
0.007550302782865559 -0.01585088988350087 0.004727187802391322
0.006769451958109544 -0.01388913643312691 0.004006571257785058
0.006230474766619899 -0.01217968343650561 0.003363825364693126
0.005872868075909731 -0.01068673493045123 0.002796242943545882
0.005649397488441176 -0.009380070940756028 0.002299390042025871
0.005523281640510848 -0.008234218292148612 0.001867701727769219
0.005466028525700356 -0.007227701826754133 0.001495254882704741
0.005455700534921251 -0.006342377032325721 0.001176237467372648
0.005475597238747072 -0.005562859894143874 0.0009048737218817518
0.005513216956441967 -0.0048760452247246 0.0006757422586958699
0.005559343023379336 -0.004270705430908388 0.0004838171833376811
0.005607339304353543 -0.003737158140158397 0.0003243596373856761
0.005652597323598792 -0.00326700410250049 0.0001930812702994015
0.005692095832103884 -0.002852911929060209 8.609374598205214e-05
0.005724067537583028 -0.002488449888294773 -3.66742516376563e-08
0.005747694401016608 -0.002167947391233145 -6.838265989404321e-05
0.005762859613737944 -0.001886382889473206 -0.0001218803452770685
0.005769948553431886 -0.001639291246446618 -0.0001632206424276137
0.005769669272630004 -0.001422694915452737 -0.0001947422015978995
0.005762960250034349 -0.001233048163512498 -0.0002185083171934221
0.005750924330360101 -0.001067192587734547 -0.0002361613534029512
0.005734764649852738 -0.000922318860990031 -0.0002491365889095311
0.005715733222198574 -0.0007959317267330439 -0.0002586705722941199
0.005695053616495266 -0.0006858160307126931 -0.0002657237557704818
0.00567392275980447 -0.000590011341156601 -0.0002710912713075692
0.005653520622669554 -0.0005067907895393851 -0.0002752233110360304
0.005635007559805269 -0.0004346400382050607 -0.0002784787483896977
0.005619534461075965 -0.0003722397953045453 -0.0002811204255278656
0.005608204213631798 -0.0003184473721795709 -0.0002833613480538023
0.005602078851533309 -0.0002722802883438124 -0.0002854056383500377
0.005602210408536522 -0.0002329098027979558 -0.0002872686778719669
0.00560967419015816 -0.0001996534913305065 -0.0002890220370059129
0.005625564772456242 -0.0001719685414313158 -0.0002907540517832774
0.005650966408018014 -0.0001494458771226566 -0.0002925873750167573
0.005686998396826693 -0.0001318091689170902 -0.0002945767740991274
0.005734856044066136 -0.0001189170364908625 -0.0002966812783020846
0.005795826958530361 -0.0001107639892698358 -0.0002989719930861719
0.005871280285453688 -0.0001074840914977573 -0.0003014788188172126
0.005962688445042546 -0.0001093559726017696 -0.0003042127345851794
0.006071696406962136 -0.0001168131884809889 -0.0003070840077701061
0.00620013968897017 -0.0001304549072215797 -0.0003100409965321146
0.006350055678105218 -0.0001510571849753831 -0.0003131540926737137
0.00652369501630046 -0.0001795930891582291 -0.0003163636833866632
0.006723585081846349 -0.000217254219781001 -0.0003195906171690175
0.00695259155620077 -0.0002654746708701551 -0.0003226448698352219
0.00721392871403793 -0.0003259626452871355 -0.0003253616211691685
0.007511212837503205 -0.000400736230179449 -0.0003275418167600464