# OOMMF: rectangular mesh v1.0
# Segment count: 1
# Begin: Segment
# Begin: Header
# Title: 
# Desc: time = 6.506020885581314e-11
# Desc: stepsize = 5.386906044976306e-13
# Desc: step = 120
# meshunit: m
# valueunit: (none)
# valuemultiplier: 218532.3326817265
# xmin: 0
# ymin: 0
# zmin: 0
# xmax: 4e-07
# ymax: 1e-07
# zmax: 4e-09
# ValueRangeMaxMag: 1
# ValueRangeMinMag: 0.003873897442744872
# meshtype: rectangular
# xbase: 2e-09
# ybase: 2e-09
# zbase: 1e-09
# xstepsize: 4e-09
# ystepsize: 4e-09
# zstepsize: 2e-09
# xnodes: 100
# ynodes: 25
# znodes: 2
# End: Header
# Begin: Data Text
0.8318163487567415 -0.5367331944421759 -0.1400653908302011
0.2494108439174909 -0.3663942136505039 0.06879002967168237
0.1171310036100263 -0.2943744080465584 0.08330135016474294
0.06292140450478131 -0.2486883576838384 0.07985541040887204
0.0348968993756667 -0.2132800157293147 0.07293917622838988
0.01872939972114014 -0.1836856989691995 0.06531166105704325
0.008893256076296346 -0.158274135575108 0.0578097641183445
0.002791230842766817 -0.1362482555872133 0.05074534383369111
-0.0009658151182411178 -0.1170990148255162 0.04423837483685899
-0.003190189462519084 -0.1004383435459492 0.0383248792210852
-0.004388061768024247 -0.08594387807399749 0.03300010214524814
-0.004889758367341655 -0.07333876180274621 0.02823860772953075
-0.004918324506022322 -0.0623827032976241 0.0240047323955661
-0.00462823535787983 -0.05286667170834303 0.02025832209212023
-0.004128489559241643 -0.0446088133273321 0.01695800116535194
-0.003497024779882881 -0.03745091568656597 0.01406305100812777
-0.002790041014652541 -0.03125523663320972 0.011534407128248
-0.002048204311116511 -0.02590168736947838 0.009335208819756021
-0.001300894059592465 -0.0212853533714451 0.007431048538057163
-0.0005691595248098028 -0.0173143680245909 0.005790025077802998
0.0001321808147064776 -0.01390807696707904 0.004382744636686018
0.0007930165931474545 -0.01099551120217875 0.003182323884630995
0.001406830963218815 -0.008514112104286223 0.002164256646961918
0.001969879880511587 -0.006408651538533255 0.001306398369078711
0.002480560980054624 -0.004630372197236733 0.0005889130634922823
0.002938912755775713 -0.00313624287116151 -5.952275663434639e-06
0.003346239106883754 -0.001888323704229058 -0.0004939974586009281
0.003704765168572512 -0.0008531995069445637 -0.000889276794050296
0.004017339268953725 -1.457999748809312e-06 -0.001204409571261422
0.004287207413235104 0.000692797965215999 -0.001450860244846825
0.004517815672459258 0.001252428377382789 -0.001639017543071781
0.004712679128046166 0.001697612984405365 -0.001778192295942617
0.004875305750128849 0.002046144534040378 -0.001876705097461604
0.005009193909298404 0.002313656294580432 -0.00194176312878814
0.0051178510154374 0.002513751343619519 -0.001979351049356411
0.005204733003082492 0.002658162676049282 -0.001994425406136982
0.005273177702472273 0.002756938295617053 -0.001991209044887671
0.005326318710283844 0.002818685505365498 -0.001973535000454702
0.005366995631195602 0.002850873148489999 -0.001944964963262102
0.005397792191104952 0.002859992198041642 -0.001908596315378112
0.00542112207734493 0.002851608830418232 -0.001866939273320716
0.005439296618433699 0.002830399966320092 -0.001821878519476947
0.00545457551400678 0.002800164691769757 -0.00177479128029295
0.005469076304714459 0.002763977784795373 -0.001726959868241182
0.005484664399878992 0.002724447968314751 -0.001679694493742106
0.005503073939977047 0.002683756029131455 -0.001633964082675333
0.005526078269429491 0.002643540320642092 -0.001590269900726992
0.005555458791551995 0.002604937446407362 -0.001548948780032198
0.005592928598205659 0.002568721731178619 -0.001510310712371208
0.005640189392437099 0.002535335332340723 -0.001474496018565289
0.005699025781612828 0.002504849027475214 -0.001441409899876655
0.005771333749954568 0.002476953837420385 -0.001410801539015795
0.005859120502114795 0.002450961408443766 -0.001382279311569518
0.005964537251585761 0.002425781375101664 -0.001355239911543201
0.006089958460363684 0.002399902906483229 -0.00132885954676336
0.006238052999143552 0.002371350955337083 -0.001302163278921723
0.006411785888084663 0.00233757257675976 -0.001273960917100783
0.006614426673433531 0.00229532879762687 -0.001242649982271384
0.006849674562966234 0.002240666740762884 -0.001206191801450343
0.007121801083770587 0.002168839457113483 -0.001162270393379652
0.007435678039824897 0.002074080821375027 -0.001108234736330389
0.007796787876842181 0.001949365816265311 -0.001040821993313675
0.008211315064198567 0.001786225557876014 -0.0009559653957813495
0.00868627765748509 0.001574542286891506 -0.0008487087405645497
0.009229692371973843 0.001302311275692408 -0.0007131700632842554
0.009850736312032884 0.0009553200177737748 -0.0005425211159960128
0.010559837675558 0.0005167025964441296 -0.0003287701743194396
0.01136875364577584 -3.354890079412252e-05 -6.241550898264855e-05
0.01229067755595303 -0.0007190967683852349 0.0002678885712581552
0.01334036497325372 -0.001567801366998786 0.0006757255908061295
0.01453428674199343 -0.002612260674065767 0.001177287696978093
0.01589075469654878 -0.003890413809570643 0.001791641778151759
0.01742999554070005 -0.00544623113154668 0.002541004050000171
0.01917414427960135 -0.007330454462066158 0.003451128697424108
0.02114707344185566 -0.009601356769848562 0.004551907553217745
0.02337404885261249 -0.01232543687505882 0.005877989313929336
0.02588116824906204 -0.01557799956050657 0.007469388113714118
0.02869449402454751 -0.01944351170723336 0.009372163019904411
0.03183879471875573 -0.02401563134044384 0.01163893795074278
0.03533578510360093 -0.02939683277272381 0.01432919205343088
0.03920175877472783 -0.03569747985384981 0.01750931764028334
0.04344448917974203 -0.04303424980328325 0.02125226817382688
0.04805937304304723 -0.05152780854523274 0.02563662287249282
0.05302486248231564 -0.06129967214295053 0.03074496983867423
0.05829739067307305 -0.07246826713103562 0.03666144473791992
0.06380625572067389 -0.08514427031196883 0.04346819790005551
0.06944915603438409 -0.0994254123043512 0.05124089047779973
0.07508934646562479 -0.115390916871608 0.06004328673758088
0.08055546467318546 -0.1330956639353284 0.06992135561660434
0.0856449226401475 -0.1525637376211975 0.08089760371879151
0.09013115386189514 -0.1737801474709281 0.09296646359618009
0.09377414171070667 -0.1966777092259958 0.1060916592225031
0.09633294685405343 -0.2211123833144588 0.1202061201319126
0.0975801629060484 -0.2468120695391725 0.1352145163405235
0.09732629587338053 -0.2732625167095254 0.1509987196441448
0.0954960928999935 -0.2994304964945405 0.1674317583982929
0.09245138985593133 -0.3229977294506496 0.1844410189542404
0.09062786598376295 -0.3377548172792076 0.2024322445230292
0.1060001664218728 -0.3212994207626351 0.2267560491383762
0.3333974747502099 -0.1327708139117007 0.3585022000004327
0.8786273313094548 -0.1881634316785504 -0.24007904285783
0.3096808190774163 -0.1714167505504612 -0.005724552174382697
0.1562158395916058 -0.1425757187067266 0.01934079129515262
0.09148631892122489 -0.1193154725645822 0.02330148389914056
0.05767638847274049 -0.1010326204005639 0.02300202994026847
0.03770696985192617 -0.08617465797759792 0.02148491024127787
0.02502251022275355 -0.0737906870538198 0.01958246363831324
0.016623139079428 -0.0633202795413981 0.01758837822655076
0.01094499119335417 -0.05439993879813674 0.01562793070718697
0.007087250441148495 -0.04676773666783373 0.01376191058705659
0.00449001811850667 -0.04022015175501886 0.01202126008417569
0.002784858436928874 -0.03459204154070032 0.01042071629647104
0.001718885770830129 -0.02974646108261735 0.00896530667212714
0.001113079408488578 -0.02556870130458794 0.007653920587906994
0.0008378407080765709 -0.02196223555008683 0.006481537138053189
0.0007978327307587449 -0.01884563518522518 0.005440713796657937
0.0009221458497877726 -0.01615007646726553 0.004522551149605415
0.001157685024594472 -0.01381726429252145 0.003717385754163642
0.00146457115516708 -0.01179769135275897 0.00301527253027672
0.001812877808747791 -0.01004918408435338 0.002406290018536067
0.002180266882966699 -0.008535686097963624 0.001880791464236458
0.002550229332284858 -0.007226258552190033 0.001429652254018535
0.002910777807007761 -0.006094253214180611 0.001044340731303748
0.003253457170109921 -0.005116637272725061 0.0007170890523293586
0.00357257735394337 -0.004273444061174576 0.0004409995510662326
0.003864611245388954 -0.003547322814824421 0.0002099388508387064
0.004127740957707878 -0.002923164494121091 1.850582940810925e-05
0.004361462924585578 -0.002387790244233552 -0.0001380896206545906
0.004566246525049032 -0.001929678242794457 -0.000264254451691904
0.004743281779541766 -0.001538728566053923 -0.0003642211205646769
0.004894237722557888 -0.001206056828295321 -0.0004420198367821334
0.00502107078839678 -0.0009238274463018827 -0.0005013530836630834
0.005125903131551741 -0.0006851195344407667 -0.0005455885777880357
0.005210965131062342 -0.0004838305793611269 -0.000577546620722172
0.00527859138674646 -0.0003146058497806353 -0.0005993381817813866
0.005331172841127713 -0.0001727717711933526 -0.0006125365689836896
0.005371107853701855 -5.426537886873696e-05 -0.0006184630126464306
0.005400748751248813 4.444595538368453e-05 -0.0006185166972877176
0.005422291366096484 0.0001264514395947832 -0.0006142228146736099
0.005437743042759138 0.0001944562822335773 -0.0006069342388513949
0.005448972478309329 0.0002508134061674819 -0.0005976512865317212
0.00545776112364272 0.0002975431794654149 -0.0005869550514792463
0.005465882519259572 0.000336349346769403 -0.0005751479066308282
0.00547508425037486 0.0003686605464258177 -0.0005626918155368739
0.005486950466307862 0.0003956879251067219 -0.0005502749021462269
0.005502916024267468 0.0004184490693140313 -0.0005383448214231794
0.005524433992439141 0.0004377589963245093 -0.000526988506587281
0.00555301586167758 0.0004542397829375065 -0.0005162765693085643
0.005590153367471274 0.0004683450862099472 -0.0005063926931025624
0.005637324918127563 0.0004803745659475396 -0.0004974453644029815
0.005696079163438566 0.0004904698496059647 -0.0004894054508092362
0.005768074080933844 0.0004986117558774995 -0.0004821987727826422
0.005855071235575549 0.0005046150639584298 -0.0004757314634667673
0.005958963024975453 0.0005081224827537173 -0.0004698060048225028
0.006081847668801318 0.0005085907784960857 -0.0004641332523493867
0.006226073082761798 0.0005052766247784269 -0.0004584335369689703
0.006394217408847786 0.0004972038666266333 -0.0004523997613562755
0.006589120688968687 0.0004831263636760254 -0.0004454840599734567
0.006814020864758108 0.0004614970759017125 -0.0004369107793853307
0.007072641144594826 0.0004304398940683365 -0.0004259147698325643
0.007369169481414455 0.0003876836519515452 -0.0004117566089251783
0.007708279523421708 0.0003304820402960584 -0.0003934600783891772
0.008095233516470417 0.0002555356284879181 -0.0003696706219283164
0.008535999271348758 0.0001589196162363174 -0.0003386403373910301
0.009037383846928872 3.599460048218429e-05 -0.0002983115984236881
0.009607138004012691 -0.0001186962685617147 -0.0002464339788124587
0.01025400019937843 -0.0003115673814905703 -0.0001804952727129691
0.01098775996520925 -0.0005501437068005389 -9.749538663465742e-05
0.01181935641788884 -0.000843220134697266 6.233607579740815e-06
0.01276100384650372 -0.001201014480450145 0.0001352684140087692
0.01382633693233518 -0.001635318947567685 0.0002952504403552005
0.01503050893393645 -0.002159638703657431 0.0004929001952284934
0.01639024847920233 -0.002789335511797614 0.0007360052689848891
0.0179238561559952 -0.003541747280614803 0.001033528842652843
0.01965107382470448 -0.004436274953319969 0.001395914148335744
0.02159282964745743 -0.005494397979111893 0.001835433283424454
0.02377081530180656 -0.006739588002368476 0.002366551497872502
0.02620681928390336 -0.008197073729516374 0.003006453710350699
0.0289217179876194 -0.009893439367779209 0.003775466393879946
0.03193401833941287 -0.01185601460018034 0.004697382741593571
0.03525783998545334 -0.01411205211027386 0.005799721837233852
0.03890018257775681 -0.01668769493706374 0.007113815582700011
0.04285742373078421 -0.01960678415586926 0.008674584545070876
0.04711104232045547 -0.02288957984058167 0.01051996845374514
0.051622720648402 -0.02655154916429958 0.01268983677412472
0.05632925388549637 -0.03060236499890279 0.01522413430176931
0.06113799148559457 -0.03504526069106947 0.01816026544496209
0.06592393895719925 -0.0398767368239275 0.02152964061695987
0.07052994562023461 -0.04508628367521161 0.02535359514123834
0.07477161078544149 -0.0506552046781142 0.02963923917829799
0.07844849218614811 -0.05655257168473234 0.03437595497188844
0.08136343541261649 -0.06272466221387794 0.03953363163297524
0.08335360569246333 -0.06907112997103831 0.04506379432349601
0.08434463281501819 -0.07539463000375739 0.05090526981290879
0.08446678913553507 -0.08129464721415687 0.05699873749320181
0.08436985453221912 -0.08593305133533824 0.06332844352005598
0.08626443618483003 -0.08747342057166081 0.07008374701468115
0.09813996218400732 -0.08164448816578164 0.07854427623794676
0.1562272048232178 -0.05851525690704825 0.09877880708095173
0.5173480717500755 -0.007008090830242903 0.2715339858326336
0.8547211713351921 -0.1031224784987396 -0.246229280067957
0.3234385693596483 -0.1126507098850333 -0.01630242480512976
0.1748969189610378 -0.1035944763397828 0.01082823078780205
0.1081832837153715 -0.09062401422115313 0.0166038571380884
0.07177083446637524 -0.07819072160845068 0.01762123766874263
0.04957288808144267 -0.06725857688634222 0.01709115296129545
0.03506500938639644 -0.0578572310962184 0.01596154184124607
0.02516173222171241 -0.0498155172265264 0.01459065363233302
0.01822801459960283 -0.04294223104792521 0.01314165043188255
0.01331354611764181 -0.03706443246056682 0.01169998814065081
0.009822975230498292 -0.03203251910180382 0.01031418462230407
0.007360720781115426 -0.02771856126887542 0.00901222034323324
0.005651995488457638 -0.02401371781387543 0.007809384239687847
0.004499595015319967 -0.02082576696230957 0.006712623489586236
0.003758653785238661 -0.01807685849627188 0.005723285520239049
0.003320993726531376 -0.01570146492834672 0.004838990356623806
0.003104929013498868 -0.01364454066663019 0.004054888406081445
0.003048352023073594 -0.01185987777844237 0.003364582439113344
0.003103870314315407 -0.01030867074700421 0.002760787198896201
0.003235307186027253 -0.00895828007283999 0.00223577569566209
0.003415130039988527 -0.007781180040122065 0.001781732861628034
0.003622509795359888 -0.006754082988795573 0.001391087901293998
0.003841858174058364 -0.005857209575425086 0.001056648088420513
0.004061706783854261 -0.005073687446648147 0.0007718147248014574
0.004273831814422827 -0.004389063822893786 0.0005307257129462747
0.004472565312488147 -0.003790905004243537 0.0003281759639828533
0.004654272460801424 -0.003268469051242857 0.0001595970029029544
0.004816906136685731 -0.002812438805573027 2.094467188288946e-05
0.004959623845158532 -0.002414696134455655 -9.152110793207484e-05
0.005082500947617702 -0.002068133956192088 -0.000181442117307441
0.00518625688815591 -0.001766501553730101 -0.0002523314328103218
0.005272029840382913 -0.001504277879863896 -0.0003074361699253848
0.005341225137722123 -0.00127657304122766 -0.0003497147963920285
0.005395430799796694 -0.001079054326821514 -0.0003816181399543145
0.005436398577059862 -0.000907890547529061 -0.0004049194353516634
0.005465995224674878 -0.0007597025562967529 -0.000420888454430804
0.00548615566272851 -0.0006315143881092603 -0.0004305767750141163
0.005498833510000739 -0.0005207062560869182 -0.0004351558464710741
0.005505883360247608 -0.0004249662586776391 -0.0004359617633525735
0.005509007970242626 -0.0003422549365439735 -0.0004341921376870905
0.005509793077033407 -0.0002707821023498037 -0.000430708525734451
0.005509753583004635 -0.0002089899069966462 -0.0004259717778829611
0.005510418341125427 -0.0001555354569581783 -0.0004201770571554626
0.005513326786232234 -0.0001092726895707843 -0.0004137060403815647
0.005519886972561325 -6.922487742076243e-05 -0.000407188391349991
0.005531365185646185 -3.456922019778481e-05 -0.0004010339687186653
0.005549046039568973 -4.630625922517544e-06 -0.000395294527641458
0.005574285771839017 2.112069641492461e-05 -0.0003900225303901857
0.005608435957574422 4.308144554938417e-05 -0.0003853952245801659
0.005652838620499785 6.152036877709966e-05 -0.000381534372042354
0.005708903561335694 7.658221593235034e-05 -0.0003784301936179702
0.005778147091098243 8.828170852860802e-05 -0.0003760493441224661
0.005862183157301048 9.650227581248297e-05 -0.0003743454199623604
0.005962748367147362 0.0001009863572244286 -0.0003731844986579315
0.006081775601053024 0.0001013306538027446 -0.0003723545243769048
0.006221428397748211 9.697214390855233e-05 -0.0003716955314241671
0.006384069440336305 8.717002564088936e-05 -0.0003710327937112078
0.006572296063117601 7.097300888957404e-05 -0.0003699589265701532
0.006789083078192848 4.720386261445754e-05 -0.0003678603227681927
0.007037853410501038 1.44356698616481e-05 -0.0003642127575415396
0.007322433703425711 -2.904792880642e-05 -0.0003585659960891312
0.007647073274906565 -8.531145240231201e-05 -0.0003502702410181954
0.008016552321746081 -0.0001568127213212203 -0.0003383285520085113
0.008436294734717466 -0.0002464580224295646 -0.0003214245732606879
0.00891249124731127 -0.0003576529598626639 -0.0002980209908046632
0.009452184421088496 -0.0004943694077420457 -0.0002665265013428648
0.01006329386483432 -0.0006612250803843383 -0.0002252089745394617
0.01075467624992056 -0.0008635771601684535 -0.0001719809404946942
0.01153622796637983 -0.001107603129328799 -0.0001042139146814496
0.01241901974747958 -0.001400384269565733 -1.85370768240863e-05
0.01341545513948409 -0.001749964712273966 8.929058381203815e-05
0.01453938078357576 -0.002165399440822748 0.0002243320478864641
0.01580616461348681 -0.002656777544476509 0.0003924521400210474
0.0172327290896899 -0.003235213305202332 0.0006003859932992873
0.01883747986125742 -0.00391277924835095 0.000856046198424863
0.02064014352825671 -0.004702367254028723 0.00116884843839406
0.02266146872443412 -0.005617433482959494 0.001550104450466815
0.02492271351720537 -0.006671608427008223 0.002013570615730406
0.02744481541339296 -0.00787813867676309 0.002575928239724092
0.03024712532317083 -0.009249150208126467 0.003257167591422463
0.03334557686809306 -0.01079471971879217 0.004080971560269734
0.03675010062968365 -0.01252179036625276 0.005074941199328529
0.04046119044515998 -0.01443298489227744 0.006270570339989323
0.04446556128127878 -0.0165254194537322 0.007702863986344648
0.04873100946345583 -0.01878970476716035 0.009409441312396169
0.05320089134522353 -0.02120931689374082 0.01142877594357252
0.05778901634867396 -0.02376053257965686 0.01379755586685434
0.06237630531879302 -0.02641300057340893 0.01654697251247759
0.06681109399238695 -0.02913068638863651 0.01969814729599654
0.07091550014593513 -0.03187239786986686 0.02325724642788726
0.0745006760021954 -0.0345901170532313 0.02721116595628261
0.07739473180781251 -0.03722201549608147 0.03152513942759279
0.07949036511795075 -0.0396749181499682 0.03614391777316583
0.08083067947050568 -0.04178753268028845 0.04099894750413716
0.08178829676185122 -0.04325941625711592 0.04602774954333282
0.08351215632952393 -0.04352022290687689 0.05122963039973101
0.08924376397757217 -0.04151020561904598 0.05687247476387016
0.108935320699698 -0.03545542942362402 0.06453653159220184
0.1803251945071004 -0.02358105374738293 0.08523296760995794
0.5419480054508443 -0.01032969167731933 0.2582804862514479
0.8207768725180259 -0.06857402656090372 -0.2442423536880051
0.3208195827010604 -0.08647217092560562 -0.02213408525722766
0.1827050422708929 -0.08640993631944778 0.005432181770880561
0.1186873608197414 -0.07962612563850439 0.01248074287907755
0.08216954222525318 -0.0708562683164608 0.01462657211671524
0.05900072339196674 -0.06207312256490667 0.01495207421541903
0.04333918340183778 -0.05399986807224615 0.01444433761697114
0.03232574335068574 -0.04684104038776563 0.01352062564732073
0.02439373569875477 -0.04059787185167831 0.0123927757730382
0.01860670646823941 -0.03519686727175816 0.01118205910524196
0.01436409044566432 -0.03054175702593585 0.009962666410400535
0.0112585921910913 -0.02653465996121133 0.008780932163065648
0.009001978333513327 -0.02308460590702118 0.007665291157060681
0.0073838182494317 -0.02011062196731534 0.006632113917386114
0.006247069291065628 -0.01754236762132967 0.005689492500534765
0.005472747820857818 -0.01531964321439049 0.00483985614816766
0.004969804695013941 -0.01339141529822356 0.004081770199014772
0.004668150865849274 -0.01171466878093242 0.003411243455688162
0.00451367101388339 -0.01025325614859503 0.002822676282654315
0.004464572218801517 -0.008976830330725719 0.002309513089606756
0.004488656996333874 -0.007859887183898325 0.001864747312098148
0.004561234890894265 -0.00688095034381247 0.001481363459144457
0.004663524709591315 -0.006021870974149795 0.001152556174504465
0.004781416276330481 -0.005267250048051717 0.0008719970600097811
0.004904495429810229 -0.004603958513946304 0.0006340222373235594
0.005025272635795471 -0.004020749080126353 0.0004335825529987667
0.005138592895883621 -0.00350793157271024 0.0002662365374227153
0.005241138037589168 -0.00305711768049222 0.0001280477980893878
0.005331001106767963 -0.002661002430525351 1.537293660269597e-05
0.00540736235547114 -0.002313188061298252 -7.534452472444964e-05
0.005470184820541166 -0.002008040395336089 -0.0001475482251456971
0.005519960273696982 -0.001740574025689809 -0.0002044260256143624
0.005557531857514976 -0.001506360098938039 -0.0002488804987046808
0.005583989356501582 -0.001301462062181512 -0.0002833060076567425
0.005600637493139941 -0.001122381730748194 -0.0003094212383325021
0.005608943050263761 -0.0009660154344447178 -0.0003284365526862871
0.005610486936026995 -0.0008296117647122723 -0.0003413468976457101
0.005606911797817731 -0.0007107303722891722 -0.0003492696460222215
0.005599798840306027 -0.0006072058907122274 -0.0003535007302487112
0.005590604512117698 -0.0005171198144118548 -0.0003552039939771906
0.005580686262459184 -0.0004387809519793045 -0.0003552156322950135
0.005571346631617491 -0.0003707100962214132 -0.0003539662758734416
0.00556392055575148 -0.0003116252465793896 -0.0003516278306480665
0.005559773808367289 -0.0002604199255858125 -0.0003485584244574675
0.005560158312878895 -0.0002161486674632096 -0.0003453789149580907
0.005566193865647212 -0.0001780154820817667 -0.0003424906249259908
0.005579024019748919 -0.0001453684009841457 -0.0003399466050181991
0.005599870899454341 -0.0001176887570010512 -0.000337795319325891
0.005629959335926311 -9.458929481810698e-05 -0.0003362233388022185
0.005670507888296368 -7.580663090961749e-05 -0.0003353588355445879
0.00572280267773336 -6.120278002592996e-05 -0.0003352134587970665
0.00578823322881403 -5.076317493128226e-05 -0.0003357734863643259
0.005868280726556162 -4.460606025467615e-05 -0.0003370260284669047
0.005964542276604062 -4.298375795378042e-05 -0.0003388600429009452
0.006078804238850269 -4.629443871136654e-05 -0.0003411085851059847
0.00621306805019181 -5.508718407964088e-05 -0.0003436714986691393
0.006369509036033884 -7.008800776668765e-05 -0.0003464522753115746
0.006550515912319405 -9.221893487274471e-05 -0.000349093264326246
0.006758839781135584 -0.0001226189862549524 -0.0003510557650955103
0.006997650538499371 -0.0001626566583779707 -0.000351932852381046
0.00727047440685389 -0.0002139768081466105 -0.0003514386160297148
0.007581212895416488 -0.0002785420221797508 -0.000349073060846507
0.007934255702204806 -0.0003586791335253298 -0.0003440065089242644
0.008334590819926734 -0.0004571142681300187 -0.0003351045243091938
0.008787921712488116 -0.0005770252673829159 -0.0003210821007348631
0.009300739414282007 -0.0007220883990045182 -0.0003006683343605552
0.009880336837901163 -0.000896553351688153 -0.0002725327156897793
0.01053487078632571 -0.001105307111944407 -0.0002350249958457283
0.01127347265828896 -0.001353942379410746 -0.0001860171079678804
0.0121063969099938 -0.001648803526900236 -0.0001226861599241617
0.01304519843784471 -0.001997027752515042 -4.144515404499846e-05
0.01410286367823444 -0.002406552499726745 6.20060043181173e-05
0.01529392113405376 -0.002886112395256718 0.0001926232631701999
0.01663452266977507 -0.003445180254465502 0.0003561052911423112
0.01814244156984201 -0.004093859188907377 0.0005591867702552939
0.01983700988842335 -0.004842679225381633 0.0008100089799939095
0.02173894602218622 -0.005702291305273457 0.001118523834577563
0.02386999774634972 -0.00668299970243918 0.001497111572410421
0.02625229018086937 -0.007794142129562269 0.001961087164542119
0.02890724988686879 -0.009043260882651064 0.002529187073352833
0.03185395587215713 -0.0104350813114277 0.003224047002397653
0.03510669372042497 -0.01197029748793584 0.004072592257962935
0.03867157583579704 -0.01364423526902736 0.005106164387212416
0.04254210675580882 -0.01544547004324941 0.006360337219918934
0.04669374416299349 -0.0173546138180166 0.007874160945429805
0.0510778379976459 -0.01934346799225975 0.009688489242300513
0.05561577558901911 -0.02137482833224728 0.01184324307570282
0.06019486362565883 -0.02340313597199426 0.01437338175292456
0.06466821797285707 -0.02537594783336767 0.01730367993654259
0.06886178190243579 -0.02723574839554977 0.02064289889662094
0.07259232232559901 -0.02892083371841098 0.02437829813614942
0.07570157811415612 -0.03036297594119778 0.0284721386892024
0.07811532742690815 -0.03147842660093295 0.03286222096693516
0.07994799576215213 -0.03214793248858284 0.037469555602266
0.08170969793138999 -0.03218205516881795 0.0422204520116797
0.08478492682801375 -0.03127522319461954 0.04710968649588235
0.0927343314395863 -0.0289848471477851 0.05242479084896123
0.1155840160885747 -0.02489453012825297 0.0598141673674552
0.1892078007006091 -0.01948353156323972 0.08024054376391859
0.5414118604217477 -0.01733308614074236 0.2493190163621955
0.7831525687761167 -0.05064531961077072 -0.2407348408722784
0.3116299897338489 -0.07197704535483343 -0.02751324011143826
0.1844695542932432 -0.07653081188356317 -0.0001717122471755079
0.1250493615794342 -0.07372750675243619 0.007856272694283474
0.09002877268276305 -0.06769506569683871 0.01110514703695885
0.06691603478405546 -0.06058970187062272 0.01237829810272653
0.05070210635484398 -0.05348335476215418 0.0126110696140801
0.03892272182707283 -0.0468601532122182 0.0122411039692351
0.03019114965571028 -0.04090254757576046 0.01151769389058651
0.02364912331245328 -0.03564520489584699 0.01059812144156489
0.01872644947822787 -0.03105427201090789 0.009586172653043587
0.01502370302602477 -0.02706739793244211 0.008551029548612834
0.01225008117449819 -0.02361370655279152 0.007538228953476158
0.01018804507659259 -0.02062351531946115 0.006576721922118591
0.008671855224713082 -0.01803276800212411 0.005683738164424125
0.007573718631541789 -0.01578470867532724 0.00486828063739687
0.006794373919034866 -0.01383015391604193 0.004133599972051089
0.006256418668683925 -0.01212705522500347 0.003479013006246066
0.005899406862162909 -0.01063975788284631 0.002901231064703307
0.005676166205155687 -0.009338160465456252 0.002395298486301332
0.005549985056926585 -0.008196885085235224 0.001955297494228736
0.005492416776984528 -0.007194525998781308 0.001574947195917021
0.005481569191783431 -0.006312984289322946 0.001247932284426453
0.005500761490271238 -0.005536900260589115 0.0009682463227662327
0.005537456168259128 -0.004853181455637013 0.0007304366635948621
0.005582406634640845 -0.004250609358617453 0.0005296003496734066
0.005629000237209389 -0.003719518223042264 0.0003613967077816296
0.005672707198980931 -0.003251534122835143 0.000221962980665801
0.005710610759853944 -0.002839360176256361 0.0001077170393969397
0.0057410457432583 -0.002476598209763078 1.515280993663888e-05
0.005763262607371707 -0.00215760705729317 -5.913593086132123e-05
0.005777146700305904 -0.001877387326285574 -0.0001183091610777413
0.005783015440184638 -0.001631488233557242 -0.0001652420330748727
0.005781493534201159 -0.001415943505934046 -0.0002023056900565985
0.005773469777147084 -0.001227220614869822 -0.000231194319339953
0.005760038292048777 -0.001062175878270139 -0.0002530924617481565
0.005742448529620756 -0.0009180167925109318 -0.000268959671326461
0.005722050950404883 -0.0007922625993846836 -0.0002798810828238288
0.005700166801385714 -0.0006827050648013051 -0.0002871222396561618
0.005678016792248245 -0.0005873843926196247 -0.0002918303258683795
0.005656739343158457 -0.0005045674303317621 -0.0002948244155919499
0.005637431204243048 -0.0004327358918695197 -0.0002965248795393106
0.005621238837425956 -0.000370574307360368 -0.0002970839675905598
0.005609360300014701 -0.0003169506934782712 -0.0002968486100890286
0.005602893417009874 -0.0002708903315932049 -0.0002964275754694722
0.005602810010129726 -0.0002315733737357351 -0.0002962260266648602
0.005610112054659312 -0.0001983295058329453 -0.000296292887993078
0.005625888529726988 -0.000170631763710516 -0.0002966830882836816
0.005651236448350358 -0.000148083442562768 -0.0002975825738045527
0.005687248441108154 -0.0001304203445907499 -0.0002991346384816577
0.00573508458282559 -0.0001175052929189732 -0.000301358871010325
0.005796005690060631 -0.0001093353567038512 -0.0003042681039372922
0.005871358184174446 -0.0001060407914689543 -0.0003078658061191876
0.005962598665859197 -0.0001078962565406331 -0.000312069429478976
0.006071366015394812 -0.0001153203363920273 -0.0003167356802145394
0.006199498065199433 -0.0001288939151646252 -0.0003218252548837015
0.006348982685703167 -0.0001493763008953862 -0.000327293184966088
0.006522004178783784 -0.0001777331837887178 -0.0003328314860023169
0.006721095682361548 -0.0002151394285249329 -0.0003379448316230876
0.00694917892789148 -0.0002630078639975049 -0.0003423349733980065
0.007209486866266077 -0.0003230272930337065 -0.0003458386919037792
0.007505587062162644 -0.0003972130061640752 -0.0003480904728447882