# OOMMF: rectangular mesh v1.0
# Segment count: 1
# Begin: Segment
# Begin: Header
# Title: 
# Desc: time = 1.263446140039479e-10
# Desc: stepsize = 4.414716323322696e-13
# Desc: step = 260
# meshunit: m
# valueunit: (none)
# valuemultiplier: 218504.4139886238
# xmin: 0
# ymin: 0
# zmin: 0
# xmax: 4e-07
# ymax: 1e-07
# zmax: 4e-09
# ValueRangeMaxMag: 1
# ValueRangeMinMag: 0.003877122315791166
# meshtype: rectangular
# xbase: 2e-09
# ybase: 2e-09
# zbase: 1e-09
# xstepsize: 4e-09
# ystepsize: 4e-09
# zstepsize: 2e-09
# xnodes: 100
# ynodes: 25
# znodes: 2
# End: Header
# Begin: Data Text
0.8320453853160389 -0.5364527056907343 -0.1411345858794892
0.2494526467946667 -0.3660266458208551 0.06771276177228479
0.1171492666510194 -0.2940307090269981 0.08234194009769991
0.06293453950130545 -0.2483844230240741 0.07902125984935855
0.03490928652335058 -0.2130161177889109 0.07221758548313575
0.01874229897266314 -0.1834583345052049 0.06468704000015406
0.008906955537967056 -0.1580790718931368 0.05726783299416104
0.002805681474898718 -0.1360814836930304 0.05027399436278163
-0.0009507740821172428 -0.1169570196014998 0.0438275652275883
-0.003174741951469542 -0.1003181233649812 0.03796626630147902
-0.004372395050414892 -0.08584288226706713 0.03268664104584917
-0.00487408520245314 -0.07325481462758653 0.02796427768897478
-0.004902892048649094 -0.06231390267850579 0.02376433148322601
-0.004613288030835602 -0.05281126829683302 0.02004725227140281
-0.004114257693134138 -0.04456514580216758 0.01677208577886532
-0.003483764259203822 -0.0374174086035543 0.01389850623863805
-0.002778040594406235 -0.03123038087523825 0.01138795591816364
-0.002037723092337646 -0.02588398396710438 0.009204068900216255
-0.001292095873217709 -0.02127331894053064 0.007312820727244795
-0.0005621141664539347 -0.01730661642029191 0.005682742159561536
0.0001374750326425697 -0.01390341579108765 0.004284983312853526
0.0007966364389798088 -0.01099298798732092 0.003093227410066064
0.001408947116869852 -0.00851301229698866 0.00208347337769981
0.00197076872167847 -0.006408480554847589 0.001233836409043442
0.002480570584887511 -0.004630829118140153 0.0005243990257595527
0.002938380266929899 -0.003137201847164029 -6.280163036552269e-05
0.003345386342702156 -0.001889760744866503 -0.0005437641374886454
0.003703656108723246 -0.0008550671286118624 -0.0009327230258135155
0.004015918538768941 -3.566760615889767e-06 -0.001242379154308279
0.004285385645713746 0.0006908183192647566 -0.00148416970710232
0.004515579601103887 0.001251014670618146 -0.001668348975081849
0.004710138785046628 0.001697101795440612 -0.001803881080643055
0.004872684335272916 0.002046629285062747 -0.001898578774362299
0.005006770642614626 0.00231491709999758 -0.001959293597486512
0.005115865490706694 0.002515333762363522 -0.001992008053150747
0.00520332984911188 0.00265957025611129 -0.002001950957632921
0.00527237444520547 0.00275783169512193 -0.001993766907076149
0.005326039627258136 0.002818945998874283 -0.001971735576712363
0.00536718073000312 0.002850496495956914 -0.0019396067721568
0.005398415590712498 0.002858955885365381 -0.001900396214435054
0.005422137914124901 0.002849830554853038 -0.001856589597817666
0.005440592012789202 0.002827788146583554 -0.001810125961425565
0.005455899670494738 0.002796767151800773 -0.001762371359699525
0.005470099986853922 0.002760077040813528 -0.001714396603772034
0.005485198105190043 0.002720418279955658 -0.001667089352911882
0.005503153382018003 0.002679896661760509 -0.001621158651861123
0.005525860561460243 0.002640075976675152 -0.001577181807234179
0.005555138914888256 0.002602013899451709 -0.0015356072415897
0.005592729352268404 0.002566314737829633 -0.001496750409634739
0.005640315208842526 0.002533233492670248 -0.001460749996483343
0.005699570764523515 0.002502743374735737 -0.001427557449006188
0.005772234339991239 0.002474539027970066 -0.001396995452923777
0.005860189947895343 0.002448051752601755 -0.001368684871820785
0.005965548387201324 0.002422384505336921 -0.001341987852527286
0.0060907030869128 0.002396184290535478 -0.001316086769962688
0.006238380922741359 0.002367573511599017 -0.001289948159154576
0.006411672160083723 0.002334041283465438 -0.001262252854014526
0.006614019096168682 0.002292334729574602 -0.001231478804488821
0.006849247881018241 0.002238417520738403 -0.001195934052088705
0.007121626725143215 0.00216739373346674 -0.001153559126166574
0.007435914163821392 0.002073376305644178 -0.00110176850188646
0.007797478597479253 0.001949316735525992 -0.001037422123617622
0.008212463240521875 0.001786795788364937 -0.0009565503781623943
0.008687902249149282 0.001575736105072452 -0.000854076225744653
0.009231828192547715 0.001304068592945145 -0.0007239388759125633
0.009853397760692368 0.0009574327254627818 -0.0005590701130480987
0.01056298193998784 0.00051883643916069 -0.0003511211493050958
0.01137224745107756 -3.175880574084181e-05 -9.042331346977509e-05
0.01229430150397426 -0.0007179022679485355 0.0002342171764182426
0.01334388970035979 -0.001567209465657643 0.000636081073309371
0.01453754576340616 -0.002612034270123515 0.001131073512825601
0.01589367209203478 -0.003890190859040233 0.001738067684555867
0.01743257441781407 -0.005445675918224826 0.002479120945392492
0.01917638937071452 -0.00732933306180565 0.003379896652457753
0.02114890041917208 -0.009599498207725465 0.004470253306860511
0.02337523735854304 -0.01232265689096348 0.005784854260228129
0.02588138083239705 -0.01557400443430858 0.007363813039900485
0.02869337548996862 -0.01943784404418012 0.009253319064443389
0.03183608571245098 -0.024007686603274 0.01150607107402381
0.0353313660609846 -0.02938586348221764 0.01418141892370276
0.03919563896361867 -0.0356825904663465 0.0173454102003622
0.04343680849381381 -0.04301442244009327 0.02107059495779272
0.04805042664371281 -0.05150198188822674 0.02543530115874061
0.05301514417778568 -0.06126687879119667 0.03052215893495168
0.05828760246910843 -0.07242779564576715 0.03641553381176642
0.06379722620648522 -0.0850957494558585 0.04319789514391374
0.06944176200492939 -0.09936880864655985 0.05094538555130777
0.0750845026150599 -0.1153265628500384 0.05972258738405407
0.08055409800219779 -0.1330243064693539 0.06957652612832212
0.08564786827783352 -0.1524865175961618 0.08053071891577582
0.09013905503635855 -0.1736984967410072 0.09258049410696217
0.09378739971760208 -0.1965932374842729 0.1056903434154216
0.09635169589313616 -0.2210267724419109 0.1197937000995325
0.09760427265464644 -0.246726936015269 0.1347952815469749
0.09735544671225581 -0.2731792332107878 0.1505764746568842
0.09552994654505481 -0.2993499692132421 0.1670093268336503
0.09248988027444066 -0.3229200661756833 0.1840199921100078
0.09067182986164402 -0.3376786278134568 0.2020137900376333
0.1060536393686689 -0.3212196893350962 0.2263474239361138
0.3334853291712562 -0.132669854830353 0.3581827580452227
0.8789950178261812 -0.1881131491854549 -0.241232622381659
0.3097434064008359 -0.1713193194196582 -0.0068890285909675
0.1562233091715363 -0.1424664784218772 0.01829721359614668
0.09148040289023149 -0.1192101305788357 0.02238976533733418
0.05766845458880262 -0.1009368164546546 0.02220997193981486
0.03770060284969916 -0.08608996071632796 0.02079655387523494
0.02501871861526306 -0.07371701494799017 0.01898294634404473
0.01662198262514505 -0.06325690091521158 0.01706496967310099
0.01094618971026885 -0.05434590807059614 0.01516997439965149
0.007090431991881296 -0.0467220858966994 0.01336046875110691
0.004494802313428961 -0.04018196961440378 0.01166871184367118
0.002790865421266124 -0.03456049763237839 0.01011049124954897
0.001725751668029758 -0.02972080039496373 0.008691700101077912
0.001120491111989341 -0.02554822411926467 0.00741188990448114
0.000845517301877266 -0.02194628151503701 0.006266509255326327
0.000805473259422114 -0.0188335751469184 0.00524856096463014
0.0009294375906068629 -0.01614130582981435 0.00434974053196093
0.001164359062394113 -0.01381119460215969 0.00356099353731093
0.001470427644167821 -0.01179375628173169 0.00287284804798161
0.001817760177610153 -0.01004686091601075 0.00227588013202462
0.002184049479501688 -0.008534521172247282 0.001761051812846294
0.002552847545927219 -0.007225882496808752 0.001319863143787302
0.002912264124882825 -0.006094385677225902 0.000944325289767456
0.00325396020863517 -0.005117084170301387 0.0006269180909932836
0.003572329182127751 -0.004274089943161198 0.0003605809872759825
0.003863861753443261 -0.003548116236998615 0.0001388561292412698
0.004126686400223397 -0.002924088471637398 -4.394144653675263e-05
0.004360212864221017 -0.002388821425505058 -0.0001928119476420848
0.004564838197339102 -0.001930753846611668 -0.000312223722726349
0.004741701726558537 -0.001539736488059933 -0.0004063152509954119
0.004892470136161481 -0.001206862290216 -0.0004789106338342433
0.005019131640152054 -0.0009243206794691023 -0.0005333226134740528
0.005123856806539551 -0.0006852603205511559 -0.0005724075444752337
0.005208934981058232 -0.0004836660649424797 -0.0005986727561736031
0.00527673649310106 -0.0003142496756053172 -0.000614285645264708
0.005329661111603256 -0.00017235908734474 -0.0006211582499618675
0.00537005305443849 -5.390740546032458e-05 -0.0006210968025883007
0.005400165134355575 4.468326832340282e-05 -0.0006159756182001515
0.0054221460518067 0.0001265322083532086 -0.0006075024876393357
0.005437989627127889 0.000194347135917987 -0.0005969480511484503
0.005449547549618015 0.0002504748808028535 -0.0005853031384029494
0.005458592577349238 0.0002969463881385172 -0.0005732038102295159
0.0054668313027683 0.0003355096515685426 -0.0005608791941150946
0.005475920058134952 0.0003676544553489156 -0.0005484546631340392
0.005487494972727519 0.000394627650179655 -0.000536062695377314
0.005503163669728139 0.000417440343027754 -0.000523838158726395
0.005524493050471735 0.0004368798365770547 -0.0005119866787895612
0.005553006769434232 0.0004535293581817677 -0.0005007588203278025
0.00559019533943287 0.0004677913664338502 -0.0004904006361020852
0.005637538621789076 0.0004799124368362922 -0.0004810983643273233
0.005696532471302969 0.000490004998573898 -0.0004729256806522389
0.005768740129719569 0.0004980541385609404 -0.0004658843162948175
0.005855852379522439 0.0005039099118009981 -0.0004598572917502899
0.005959736055665792 0.0005072691233532337 -0.0004545519401881769
0.006082481495268937 0.0005076430459954898 -0.0004496018590005843
0.006226455111776115 0.0005043200011022598 -0.0004446011002756877
0.00639432784688694 0.0004963313805340625 -0.0004390782476435287
0.00658907874559005 0.0004824209327771985 -0.0004325975452617273
0.006814030407391165 0.0004610166149821862 -0.0004248378847725075
0.007072889727202927 0.0004301989359042976 -0.0004154151902113508
0.007369769324526088 0.0003876553274118183 -0.0004037224483536595
0.007709279559534695 0.0003306213770354488 -0.0003889455780750311
0.008096662805520108 0.0002558051492874784 -0.0003698312041279739
0.008537874924567259 0.000159290602298946 -0.000344484796517486
0.009039686036938258 3.642965538685657e-05 -0.0003106474168988294
0.009609805962370023 -0.0001182654098931575 -0.0002658102641405717
0.01025694838691507 -0.0003112396923966553 -0.0002070620204646789
0.01099088057501339 -0.0005500244786682673 -0.00013119770237681
0.0118225295769195 -0.0008433824471417799 -3.467396050864137e-05
0.01276413306539226 -0.001201471895094215 8.678244582435585e-05
0.01382935740750303 -0.001636021119438763 0.000238522630515202
0.01503337441195959 -0.002160497413280445 0.0004270741840483416
0.01639292650702182 -0.002790259387540886 0.0006600457066326918
0.01792630044014903 -0.003542667940640168 0.0009462592360958676
0.01965318000069764 -0.004437147076949421 0.001296090377320998
0.02159440804322336 -0.005495180207733953 0.001721840344217766
0.02377160358166886 -0.006740216217941501 0.002238156391206793
0.02620654944740423 -0.00819744384390244 0.002862455043565931
0.02892021167431038 -0.009893400920912118 0.003615214384805471
0.03193123363800394 -0.0118553736532275 0.004520111102188759
0.03525385356672241 -0.01411057745510019 0.005604287547475455
0.03889517037508847 -0.01668513448137069 0.006898622385023437
0.04285165763669212 -0.01960289182178689 0.008437748741095324
0.04710491374549526 -0.0228841531072354 0.010259622137341
0.05161676540075847 -0.02654446372272084 0.01240429750197959
0.0563241163738496 -0.03059359452895997 0.01491197388967589
0.06113436940331892 -0.03503487529983293 0.0178205075373822
0.06592256436384387 -0.03986489075416604 0.0211621591238181
0.07053156986482771 -0.04507319634559657 0.02495938220050152
0.07477693512461832 -0.05064113313019117 0.02922035427659948
0.07845809007234507 -0.05653777245940211 0.03393542516409153
0.08137769665440618 -0.06270935400879692 0.03907533561909692
0.08337270833614344 -0.06905546435971245 0.04459217695143449
0.08436855970106849 -0.07537866711612891 0.05042482130339476
0.08449543379475563 -0.08127832033691834 0.05651337436710348
0.08440325594596022 -0.0859160941451655 0.06284090814187106
0.08630323760164317 -0.08745520335966553 0.06959528292249027
0.09818649608655013 -0.08162366356745208 0.07805566636769423
0.1562889120977161 -0.05848919606429157 0.0982990095256802
0.5174508372712138 -0.006973699341493902 0.2711604099797537
0.8551405522733027 -0.1031048870725699 -0.24738037421812
0.3235257819883956 -0.1126030784455334 -0.01746477951312546
0.174910871603642 -0.1035320943850186 0.009777367323588719
0.1081748357203218 -0.0905575135695748 0.01567738192129088
0.07175641845174908 -0.07812614504762606 0.01680951939300844
0.04955859434709279 -0.06719890975789471 0.01638038579198275
0.03505306175108565 -0.05780371295801726 0.01533848278730488
0.02515276131659842 -0.04976844743627632 0.01404371043140086
0.01822198463898543 -0.04290142593489794 0.01266091787016698
0.01331016539237492 -0.03702947894525264 0.01127698848929824
0.009821864074768915 -0.03200291210897371 0.009941546757435726
0.007361467178357594 -0.0276937751767847 0.008683476320627841
0.005654198017139424 -0.02399323760871103 0.007518837106496887
0.004502909544509011 -0.0208090971213051 0.006455176746251922
0.003762773670411825 -0.01806352342876703 0.005494269532148227
0.003325594826155986 -0.01569100889734706 0.004634152015016626
0.003109679584736247 -0.01363652615602888 0.003870561301980014
0.003052965073956318 -0.01185388420956933 0.003197716419876442
0.003108116899631738 -0.01030429928515526 0.002608815271455453
0.003238983077443794 -0.008955167540789417 0.002096637100938977
0.003418046302112833 -0.007779011548690455 0.001653994934877127
0.003624531076031028 -0.006752601125496538 0.001273969067213351
0.003842945771162936 -0.005856216125323971 0.0009499354786427727
0.004061942682752656 -0.005073042276876889 0.0006755610905852461
0.004273390768770717 -0.004388677926209524 0.0004448236001422349
0.004471657285067126 -0.003790729925310001 0.0002521842115605488
0.004653081317609049 -0.0032684776203628 9.278336594968838e-05
0.004815557018440703 -0.002812602516624785 -3.763500539425831e-05
0.004958185912756959 -0.002414968088128045 -0.0001428711963645541
0.005080987394141949 -0.002068444955080844 -0.0002264654316642462
0.005184651327073917 -0.001766772258534587 -0.0002917148101792694
0.005270313674185575 -0.001504443074564901 -0.0003414731895619114
0.005339405513739769 -0.001276601377758778 -0.0003781899689255308
0.005393575312328416 -0.001078955667502927 -0.0004039988378863379
0.005434634067861146 -0.0009077061829451291 -0.0004207230156768787
0.005464487864374027 -0.0007594870295151501 -0.0004299779091262992
0.00548504102169621 -0.0006313188631971588 -0.0004333238544050968
0.005498151186463359 -0.0005205678563102021 -0.0004324223674114902
0.005505611022116483 -0.0004249114181969761 -0.0004287998564393926
0.005509097690367002 -0.0003423088714148658 -0.0004235800356641849
0.005510184492113182 -0.0002709687894840549 -0.0004176209686933853
0.005510395867306017 -0.000209321754773661 -0.0004114257418251973
0.005511211529644393 -0.0001560027877042872 -0.0004051027023928299
0.005514076812697642 -0.000109837384153911 -0.0003986779823352103
0.005520427068418907 -6.982914218769563e-05 -0.0003921981636817168
0.005531676726957862 -3.515445274115059e-05 -0.0003857320306801413
0.005549211960024003 -5.155042969318446e-06 -0.0003794562350262838
0.005574393619872552 2.067656950831163e-05 -0.0003736138944153168
0.005608567105828983 4.271077883452059e-05 -0.0003684547598216698
0.005653083516694793 6.119221831412179e-05 -0.0003641953423173051
0.005709321547872109 7.625102401213892e-05 -0.0003609476565034105
0.005778726379878437 8.790587631771309e-05 -0.0003587468148198706
0.005862859106975165 9.605745877571969e-05 -0.0003575260079511929
0.005963438365301853 0.0001004774659246142 -0.0003570524829766038
0.006082379380577399 0.0001007891868412611 -0.0003570169329542713
0.006221844311155394 9.644291483884992e-05 -0.0003570977028767083
0.006384275645827885 8.669612097105427e-05 -0.0003569503516963154
0.006572400934551103 7.059446275709819e-05 -0.0003562976631888021
0.006789265242777961 4.694817817538102e-05 -0.000355019633061245
0.007038266633117068 1.430781770883335e-05 -0.0003529867725659173
0.007323167622794551 -2.906703740239102e-05 -0.0003498943838217357
0.007648175028670513 -8.524785820268256e-05 -0.0003452727198735616
0.008018059963888144 -0.0001566877404858891 -0.0003382434933906425
0.008438227329700881 -0.0002462847788122277 -0.0003273388685080839
0.008914813961796594 -0.0003574484346007974 -0.0003108174432324406
0.009454812016556253 -0.0004941641805174835 -0.0002867918765975022
0.01006612626417677 -0.0006610668127230232 -0.0002530938711445593
0.01075761539972125 -0.0008635156479233659 -0.0002074066702919199
0.01153918855251493 -0.001107673795186708 -0.0001472361402801267
0.0124219516747567 -0.001400590887930411 -6.954380702840354e-05
0.01341833149532219 -0.001750279665912841 2.958707803019391e-05
0.01454217049213872 -0.002165773644519926 0.0001550287170591925
0.01580882713110202 -0.002657159366497424 0.0003124679485646187
0.01723519926470877 -0.003235560951030528 0.0005085053944197443
0.0188396410250672 -0.003913065776304206 0.0007509811211851677
0.02064181029513176 -0.004702571430180775 0.001049349874365191
0.02266239893232641 -0.005617529650614546 0.001415119549972523
0.02492266795224866 -0.00667155465258296 0.001862293699059159
0.02744364581998496 -0.00787787396086438 0.002407698837921969
0.03024481630419612 -0.009248593346927951 0.003071189715553237
0.03334222127419936 -0.01079377737777387 0.003876038859156826
0.03674587295917317 -0.01252036852729485 0.004849373630005859
0.04045633647422686 -0.01443100739333647 0.006022390154476468
0.04446042135428594 -0.01652284705528725 0.007430122640066729
0.04872605124444357 -0.01878655087416668 0.009110384959684715
0.05319668831062512 -0.02120565181176289 0.01110191690298497
0.05778620736365295 -0.02375647685216862 0.01344188011453307
0.06237558520561834 -0.02640870549596425 0.01616236881806848
0.06681320417973363 -0.02912630702647144 0.01928568451847263
0.0709211641841994 -0.03186805919600049 0.02281912744370674
0.07451052335675969 -0.03458588030233638 0.02675062985486747
0.07740923415854561 -0.03721784847965765 0.03104634858384519
0.07950979618125044 -0.03967067814597235 0.03565164951332957
0.08085512802514466 -0.04178295904506499 0.0404980295804229
0.08181778815673302 -0.04325412408472162 0.0455223728987123
0.08354693160695308 -0.04351367635950028 0.05072267155783363
0.08928482388363534 -0.04150164975519576 0.05636511395660447
0.1089856055961383 -0.03544378106590819 0.06402940130365034
0.1803927628788476 -0.02356488042998338 0.08473551956120999
0.5420584311924743 -0.01030733807695461 0.2578937239532706
0.8212278115400501 -0.06856756369764187 -0.2453752781045949
0.3209269227912227 -0.08644433182103541 -0.02327821487980022
0.1827293874941802 -0.08636781104953925 0.004388218041442153
0.1186820383612163 -0.07957651567118852 0.01155065140585758
0.08215372440220052 -0.07080452167729714 0.01380333375883892
0.05898254152893961 -0.06202276355640626 0.01422453358019976
0.04332217262103236 -0.05395293227440637 0.01380145607688405
0.03231131791676816 -0.04679853722556697 0.01295247796026704
0.02438230257189039 -0.04056016399232502 0.0118906368553773
0.01859820814132892 -0.03516393471256058 0.01073824104181536
0.0143582580170132 -0.03051336931373395 0.009570293025422666
0.01125505560335057 -0.02651048141265275 0.008433816404827085
0.009000344111718907 -0.02306425587291709 0.00735786855116311
0.007383736419358569 -0.02009370467704047 0.006359320945197289
0.006248221264651332 -0.01752848834318952 0.005446623118798184
0.00547479451016456 -0.01530841593627738 0.004622570888007736
0.004972398949739967 -0.01338246566404539 0.003886282733409948
0.004670988457688674 -0.0117076338572811 0.0032343724520885
0.004516497004719604 -0.01024779100743266 0.002661721487000521
0.004467144372734884 -0.008972619236244513 0.002162282385922221
0.004490738779058531 -0.007856654086107907 0.001729686864246203
0.004562638133470374 -0.006878464520903363 0.001357591805637811
0.004664157320718096 -0.006019950892097724 0.001039785234628426
0.00478131021894367 -0.005265761394397381 0.0007702320944720616
0.004903783095760889 -0.004602811184078123 0.000543127861880265
0.005024134957162795 -0.004019887306964715 0.0003530967711204993
0.005137203191199973 -0.003507319633680849 0.000195408621467296
0.005239628039364313 -0.003056721477972144 6.591618939272635e-05
0.005329455513470791 -0.002660777991583102 -3.908608533002418e-05
0.005405807336367263 -0.002313077928984962 -0.0001230498910446857
0.005468602178044686 -0.002007981577401804 -0.0001891962528003401
0.005518311054184358 -0.001740513571654508 -0.0002403234337947684
0.005555792172431119 -0.001506268522779219 -0.0002788344864311272
0.00558219790548627 -0.001301335188096858 -0.0003068069755197456
0.005598903602466033 -0.001122234283667593 -0.0003259962810619361
0.005607428312830576 -0.0009658706709091917 -0.0003379609732971019
0.005609332343983148 -0.0008294932574326706 -0.000344220680600103
0.005606165620857098 -0.0007106579084890562 -0.0003463938638197756
0.005599442125486496 -0.0006071964120234077 -0.000345968442233529
0.005590588908909076 -0.0005171928535159653 -0.0003440491534727123
0.00558095688139662 -0.000438955911582111 -0.0003414742402028336
0.005571868194476057 -0.000370996127050907 -0.0003387089629922666
0.005564613906824077 -0.0003120130290357332 -0.0003358222635933545
0.005560463157745443 -0.0002608837954263211 -0.000332808165423555
0.005560684870847023 -0.0002166513284809895 -0.0003296768474839093
0.005566533054003245 -0.0001785180600799522 -0.00032646580664689
0.005579242973605937 -0.0001458398821390555 -0.0003233500178532911
0.005600038026351738 -0.0001181143011690638 -0.0003205822323266151
0.00563013598987924 -9.497001982941801e-05 -0.0003184203458801045
0.00567076844739433 -7.616096361026781e-05 -0.0003171126650202276
0.005723202167583922 -6.155759678503921e-05 -0.0003168101714020116
0.00578876899281593 -5.11440076500061e-05 -0.0003175682356157206
0.005868906936893732 -4.502490715274817e-05 -0.0003193431775449023
0.005965198951409338 -4.3435143112823e-05 -0.0003219289411152884
0.006079406239486109 -4.675480553361134e-05 -0.0003250360451116781
0.006213516426538151 -5.552843814616008e-05 -0.0003283782206503841
0.006369780246095354 -7.048172502310949e-05 -0.0003316702797816591
0.006550713925148885 -9.253916380950963e-05 -0.0003347112835709567
0.006759128316571231 -0.0001228467452132126 -0.0003374907213543757
0.006998162519245189 -0.0001627937015234957 -0.0003400193812546319
0.007271287422467954 -0.0002140388190963341 -0.0003421482797065993
0.007582376037302717 -0.0002785470257019966 -0.0003435799871418416
0.007935815101597504 -0.0003586349086744351 -0.000343616598906978
0.008336568345418186 -0.0004570229846836949 -0.0003409858438232866
0.008790273757371148 -0.0005768899865674343 -0.0003341836390062309
0.009303365083690481 -0.0007219257382613493 -0.0003216094436314459
0.009883126274805669 -0.0008963916186466473 -0.0003014475738610864
0.01053773182442342 -0.001105179004298681 -0.0002718067844663381
0.01127634172618794 -0.001353865903363348 -0.0002306898882358589
0.01210925234341448 -0.001648773738044508 -0.0001756440442897046
0.0130480357193466 -0.0019970147208828 -0.0001034322199599686
0.0141056603817087 -0.002406514917470758 -9.959917501805653e-06
0.01529663159940388 -0.002886008199751495 0.0001095608214767492
0.0166370695975392 -0.003444978866708241 0.0002606990980131267
0.01814469886869937 -0.004093540162094975 0.0004501330150963033
0.01983879112461919 -0.004842228906354272 0.0006860462998766269
0.02174001683441765 -0.005701691632203004 0.0009786013051326734
0.02387013210964455 -0.006682224049256302 0.00134041595809977
0.02625135438566678 -0.007793151068049078 0.001786939482078293
0.02890523930910257 -0.009042006521008634 0.002336737120449217
0.03185096448239589 -0.01043351236915868 0.003012003563300474
0.03510288283575155 -0.01196837256542453 0.003839158740622674
0.0386671613393477 -0.01364193617836647 0.004849241367984374
0.04253738502492992 -0.01544281871402882 0.006077858936376148
0.04668913241166653 -0.01735168084277746 0.007564269218570395
0.05107386248507812 -0.01934037413202886 0.009349598344032021
0.05561304420363968 -0.02137173209165244 0.01147426698827826
0.06019406642227584 -0.02340021323819521 0.01397417979465579
0.06467012489035093 -0.02537336071396587 0.01687535025345596
0.06886717980523234 -0.02723360974648832 0.02018773327841615
0.07260193787214148 -0.02891916786458197 0.02389970066471349
0.0757160028590937 -0.03036168700331588 0.02797451563695527
0.07813496265336067 -0.03147727864894504 0.03235066261619216
0.07997305307359738 -0.0321465461633513 0.03694923120208909
0.08174032388650769 -0.03217991274301204 0.04169586743297374
0.08482150004541236 -0.03127167241750267 0.04658393585994008
0.09277803534216379 -0.02897909208763834 0.05189913078336008
0.1156380126626101 -0.02488561559645909 0.05928923786572751
0.1892803293741709 -0.01947033074077206 0.07972619124636189
0.5415296409711974 -0.01731389109443254 0.2489195585057098
0.7836227044755107 -0.05064485165547006 -0.2418439718204996
0.3117535581670592 -0.07196185949828617 -0.02863460356507621
0.1845054230424741 -0.07650259064875473 -0.001204675893813799
0.1250503083141662 -0.07369010008966879 0.006925735781916378
0.09001488873818049 -0.0676527464301354 0.01027239878761665
0.06689677945299387 -0.06054602576318485 0.01163486922986708
0.05068218500893312 -0.05344083241857011 0.01194831118239066
0.03890441007428086 -0.04682034880543548 0.01165099300625924
0.03017543000967339 -0.04086630824400416 0.01099291211437006
0.02363629726276287 -0.03561288651919704 0.01013196074575111
0.01871645757912415 -0.03102591657724194 0.009172400457326573
0.01501628855904362 -0.02704286037669034 0.008183847110697263
0.01224490628908725 -0.02359273630764011 0.007212277118362313
0.01018478274403933 -0.0206058080373132 0.006287015533461569
0.008670191719952225 -0.01801799531394829 0.005425566717494379
0.007573310521057981 -0.01577253624518366 0.004637237818542543
0.006794865870277486 -0.01382024827714983 0.003925785450559444
0.006257493939962061 -0.01211908847284625 0.00329110685109307
0.005900789662989735 -0.0106334137528773 0.002730390040610649
0.005677584122883695 -0.009333144473943745 0.002239185899741762
0.005551163956092703 -0.008192931611100789 0.001812221570091129
0.005493125199670082 -0.007191405779962261 0.001443902604986441
0.005481669309152153 -0.006310509200527557 0.001128531276781482
0.005500240652551622 -0.005534926288625491 0.0008604268279258894
0.005536407523142005 -0.004851606019556531 0.0006340286648933268
0.005580983231703652 -0.004249365853813695 0.0004441244232184866
0.005627362823609228 -0.003718561337614932 0.000286091547270168
0.005670988372969475 -0.003250826389396195 0.0001558577589952718
0.005708903695634643 -0.002838860005016238 4.977414527843026e-05
0.005739384557140807 -0.002476255672627891 -3.55578371704765e-05
0.005761627869620041 -0.00215736694906636 -0.0001033141371299434
0.005775485281629262 -0.001877200352717872 -0.0001562701515011676
0.005781281922133607 -0.001631322213495509 -0.0001968198462375761
0.005779707284101378 -0.001415786833598335 -0.0002270225335181674
0.005771727862917691 -0.00122707669312284 -0.0002486008257050755
0.005758497274442932 -0.001062057009754684 -0.0002630862059790461
0.005741250913437419 -0.0009179368265295768 -0.0002719806982101794
0.005721248740016407 -0.0007922313621481287 -0.0002768747316291394
0.005699741251024369 -0.0006827308878490364 -0.0002792270439275455
0.00567791711378622 -0.0005874786855668467 -0.0002801346738676517
0.00565691345251877 -0.0005047456846789304 -0.0002804295004491369
0.00563785612302941 -0.0004330084528303402 -0.0002805513900436123
0.005621851652199055 -0.0003709363147430383 -0.0002805402806819712
0.005609996840087087 -0.000317380211694338 -0.000280366288652509
0.005603399085880774 -0.0002713593137052507 -0.0002800061184158971
0.005603157021235932 -0.0002320535940442738 -0.0002794641769427757
0.005610358381662281 -0.0001987981925471553 -0.0002789134574389147
0.005626090447962419 -0.0001710731059198225 -0.0002786223675287652
0.005651442027460694 -0.000148494259144867 -0.0002788628678625798
0.005687520718219892 -0.0001308092811278441 -0.0002799169683822549
0.005735475345635454 -0.00011789064833659 -0.0002819746983998704
0.005796518327334703 -0.0001097328500406085 -0.0002851076291286966
0.005871959285726323 -0.000106459233266196 -0.0002892839661480952
0.005963242554237396 -0.0001083305810564473 -0.0002943120288002359
0.006071976058287229 -0.000115756258096357 -0.0002999115209112382
0.006199976403588043 -0.0001293114635801158 -0.0003058203824898571
0.006349306761824338 -0.0001497550625995674 -0.0003117966685878854
0.006522276151276449 -0.0001780481911785417 -0.0003177014519190896
0.006721466273254281 -0.0002153762355217442 -0.000323623536622343
0.006949764565497665 -0.000263169505195079 -0.0003296967685241775
0.007210359467524005 -0.0003231294175024551 -0.0003358951619649036
0.007506801359560228 -0.0003972650232415979 -0.00034205794653551
0.007843109370233716 -0.0004879362148000849 -0.0003476386751306806