# OOMMF: rectangular mesh v1.0
# Segment count: 1
# Begin: Segment
# Begin: Header
# Title: 
# Desc: time = 1.019453657499434e-10
# Desc: stepsize = 3.6306204204038255e-13
# Desc: step = 200
# meshunit: m
# valueunit: (none)
# valuemultiplier: 218479.5354941029
# xmin: 0
# ymin: 0
# zmin: 0
# xmax: 4e-07
# ymax: 1e-07
# zmax: 4e-09
# ValueRangeMaxMag: 1
# ValueRangeMinMag: 0.003873560319833984
# meshtype: rectangular
# xbase: 2e-09
# ybase: 2e-09
# zbase: 1e-09
# xstepsize: 4e-09
# ystepsize: 4e-09
# zstepsize: 2e-09
# xnodes: 100
# ynodes: 25
# znodes: 2
# End: Header
# Begin: Data Text
0.8321081580246825 -0.5364216279491282 -0.1408375023959365
0.2495018059256727 -0.36594750457722 0.06807096004567316
0.1171905830334264 -0.2939485884021388 0.08266525528577073
0.06296924734989724 -0.2483083474755814 0.07930194668776329
0.03493864693321783 -0.2129481712275751 0.07245927040145954
0.01876739465697356 -0.1833984748447013 0.06489515208983329
0.008928628029016636 -0.1580265176088426 0.05744745271194279
0.002824566289043825 -0.1360352269249447 0.05042938998533818
-0.0009341989945542454 -0.1169160426801425 0.04396219123261446
-0.003160122856587768 -0.1002814971060068 0.03808292482905414
-0.004359466618554932 -0.08580979630590968 0.03278764117304802
-0.004862619437749367 -0.07322456432971074 0.02805153678747617
-0.004892679835176297 -0.06228589071140397 0.02383941331115098
-0.004604163423552169 -0.05278502260936246 0.02011147919945967
-0.004106104776472904 -0.04454030420221048 0.01682666204845341
-0.003476464991130951 -0.03739365172102135 0.01394450090586651
-0.002771449179872594 -0.03120741326788337 0.01142622621291414
-0.002031710343915057 -0.02586157327251682 0.009235308859674262
-0.001286583817690493 -0.02125130937136474 0.00733773906861449
-0.0005570467322836199 -0.01728488143557115 0.005702101384096835
0.0001421803510594643 -0.01388182725231558 0.004299543660025867
0.0008011034969720529 -0.01097143275334018 0.003103701774154674
0.001413323323246051 -0.008491446895891756 0.00209055318072092
0.001975183163797149 -0.006386984864857164 0.001238299915701426
0.002485119579519828 -0.004609605165671596 0.0005272174015080468
0.002943166558299827 -0.003116519110317279 -6.05548934731553e-05
0.003350544971357831 -0.001869929458562605 -0.0005411095948139016
0.003709325683438588 -0.0008364695805103429 -0.0009289211787855542
0.004022203780173174 1.334661786972146e-05 -0.001236968901880281
0.004292327446446749 0.0007055763342818 -0.001476928729955556
0.004523102130402704 0.001263186359468263 -0.001659354543815498
0.004718018892626451 0.001706358018308759 -0.001793522361092846
0.004880594386172827 0.002052855726089051 -0.001887485005415044
0.005014396473963791 0.002318343849640099 -0.001948395128174778
0.005122966163904801 0.002516518553376249 -0.001982545427261182
0.005209678334719351 0.002659201693701598 -0.001995227901782235
0.005277741346515212 0.00275656110994029 -0.00199074462700544
0.00533024098878882 0.002817355319387653 -0.001972548729082908
0.005370138338394296 0.002849074236210318 -0.001943550625842234
0.005400255329527381 0.002858074615122207 -0.001906405567690327
0.005423209792604227 0.002849680689978862 -0.001863469061360778
0.005441330582359563 0.002828282655586234 -0.001816778542934936
0.005456690921963881 0.002797569326210295 -0.001768103268973688
0.005471205026747945 0.002760722828185761 -0.001718877709246167
0.00548667894174613 0.002720493931595125 -0.001670326029397595
0.00550489636286473 0.002679197851083425 -0.001623613888731168
0.005527667949208777 0.002638634723658806 -0.001579619021235012
0.00555678124043166 0.002600029073570982 -0.001538647684309788
0.005593988564105657 0.002564045206079288 -0.001500601643537428
0.005641039318832678 0.002530893673960145 -0.001465238733534673
0.005699720127733378 0.00250046894968557 -0.001432198450973171
0.00577188064028025 0.002472427488555712 -0.001401181273446084
0.005859468764601954 0.00244621001886929 -0.001372103096655945
0.005964640349081399 0.002420958995932787 -0.001344840302059065
0.006089817213090365 0.002395333472049027 -0.001318864529870574
0.00623768347732191 0.002367352649021415 -0.001293115877624922
0.00641123321476082 0.002334309008007986 -0.001266156005531453
0.006613793759742613 0.002292775430059708 -0.00123625950835758
0.006849042348561079 0.002238663676600297 -0.001201340479607529
0.007121094319292215 0.002167175098544576 -0.001158995937454364
0.007434643385864621 0.002072645606473664 -0.001106463209221974
0.007795138187775225 0.001948286427745092 -0.001040357658900514
0.00820890685389308 0.001785830906133402 -0.0009565985410237941
0.008683183154005561 0.001575263118067347 -0.0008505165826269699
0.009226123092927658 0.001304585745138297 -0.0007167260018114669
0.009846887443984037 0.0009595230155850268 -0.0005488370574382898
0.01055579456629371 0.0005231474149588416 -0.0003390824921958127
0.01136452901487784 -2.462505426958343e-05 -7.7805381416324e-05
0.01228631804748972 -0.0007075888760893776 0.0002466859144169695
0.0133359688069721 -0.001553701850652061 0.0006480546737010189
0.01452991830538613 -0.002595536149112089 0.001142309027988308
0.01588642873828851 -0.003870976013102442 0.00174839999670344
0.01742571856576013 -0.005424038172642334 0.002488654097910608
0.01916986875759795 -0.00730555977549857 0.003389044702893087
0.02114262242836583 -0.009573849359981696 0.004479643589313783
0.02336911924267637 -0.01229536655218976 0.005795322401667066
0.02587538893397982 -0.01554531711547916 0.007376363194902728
0.02868749346731269 -0.01940800536810538 0.009268929522172906
0.03183026235469325 -0.02397688206636532 0.0115255591932596
0.03532553520480351 -0.02935419889539049 0.0142055239871392
0.03918978351551649 -0.03565014074030842 0.01737491189230833
0.04343099510434714 -0.04298128833094864 0.02110634915701065
0.04804479793430689 -0.05146831337717371 0.0254781408795859
0.05300987467307023 -0.0612328486748253 0.03057274324170112
0.05828288545598944 -0.07239353954242532 0.03647430756318404
0.06379333411247537 -0.0850613732149131 0.04326520140549903
0.06943909311295021 -0.09933444771382183 0.05102148226083347
0.07508353536092459 -0.115292392694028 0.05980745343333586
0.08055534153544941 -0.1329904932598951 0.06966974558345727
0.08565186060406393 -0.1524532119658121 0.08063156193785294
0.09014634553269936 -0.1736658780466209 0.09268800914939317
0.09379847697976543 -0.1965615411366238 0.1058033773900039
0.09636692528746632 -0.2209962830100274 0.1199109717200231
0.09762387008151603 -0.2466979815041005 0.1349155787338738
0.09737949461031482 -0.27315217165657 0.1506988802635503
0.09555849131599857 -0.2993251164198284 0.1671334212822374
0.09252327720934878 -0.3228974635024708 0.1841460122810324
0.09071191652170366 -0.3376573240186256 0.2021426478737804
0.1061093618167599 -0.3211949235726481 0.2264805891488885
0.3336280453386641 -0.1326169388332397 0.3583326829285199
0.8791225070913283 -0.1881006420629873 -0.2408472407220883
0.3098080958328652 -0.1712818638450005 -0.006418263641390133
0.1562646793093906 -0.1424220811832581 0.01872508276373367
0.09151033964603454 -0.1191668068373579 0.02276291889306622
0.05769179350267088 -0.1008974353381077 0.02253257745328342
0.03771976073918294 -0.08605524617897964 0.02107539797972762
0.02503503624201144 -0.07368682091265656 0.01922448532997301
0.01663624852788032 -0.06323075026048036 0.01727468999217714
0.010958881675459 -0.05432322936931555 0.015352366846627
0.007101838096825047 -0.04670231878895175 0.01351921034741449
0.004505104972313581 -0.04016460775567256 0.01180685782679679
0.002800210056255412 -0.03454510141743167 0.01023060117507045
0.00173425999012439 -0.02970699957839187 0.008795882089236092
0.001128242521366452 -0.02553571661606178 0.007501926495985714
0.0008525664167526496 -0.0219348241262902 0.006344013669614921
0.0008119044365081984 -0.01882296716106228 0.005314976952202078
0.0009353607909749635 -0.01613137922741041 0.004406248802310554
0.001169856038398664 -0.01380181293524678 0.003608554085877311
0.0014755416663452 -0.01178481072385075 0.00291241100627664
0.001822536657744405 -0.01003825814615085 0.002308454173769105
0.002188564433184006 -0.008526175477658547 0.001787641974871396
0.002557198445123017 -0.007217719643303695 0.001341405779188846
0.002916542361024217 -0.00608635546651323 0.0009617001393519502
0.003258225054102469 -0.005109171184853952 0.0006410623641847378
0.003576621851950718 -0.004266313816378903 0.0003726193500852906
0.003868249440038199 -0.003540525264610801 0.0001500065789370876
0.004131264294097411 -0.002916758494103767 -3.260386286777768e-05
0.004365071640828604 -0.002381860721613578 -0.0001805385388512392
0.004570049327414689 -0.001924300180396501 -0.0002986360475571338
0.004747302704136641 -0.001533945043841649 -0.0003913495478624104
0.004898416981398873 -0.001201887472329442 -0.0004628565630854953
0.005025287947153524 -0.0009202879359104216 -0.0005167986690420709
0.005130055487815951 -0.0006822257840942476 -0.0005562290904529729
0.00521505101840701 -0.0004815878918070463 -0.0005838902270198196
0.005282657657798458 -0.0003129990389208485 -0.000602223778028044
0.00533519657367035 -0.0001717566263845307 -0.0006131618584736398
0.005374961268967299 -5.375392744624335e-05 -0.0006180705037992271
0.00540423371849023 4.459044225725062e-05 -0.0006178453083282335
0.005425248714397886 0.0001263849797965558 -0.0006132108159980805
0.005440168900090128 0.000194304886118104 -0.0006050203759973989
0.005451015117750783 0.0002506305788587662 -0.0005941798567516078
0.005459620951569885 0.0002972989925068283 -0.000581562206117379
0.005467687659009013 0.0003359717645415321 -0.0005679826396719227
0.005476834969170142 0.0003680902908578271 -0.0005540691683457806
0.005488597580761452 0.0003949055738850205 -0.0005403619218476215
0.005504464236293744 0.0004174805016567747 -0.0005274777942495708
0.005525912866616158 0.0004366720910962315 -0.0005158827056214449
0.005554388568990739 0.0004531211757347303 -0.0005055867413572014
0.005591332887365807 0.0004672589090108635 -0.0004963279240210564
0.005638252411922822 0.0004793328098106456 -0.0004878426928728403
0.005696753757304389 0.0004894439403314965 -0.0004798456682511081
0.005768530853915188 0.0004975662016258226 -0.0004722061356169171
0.005855354730945742 0.0005035440480825554 -0.0004651425074036405
0.005959132903068104 0.0005070702313721195 -0.0004589656313148373
0.006081948431653524 0.0005076411490101936 -0.0004536910100989803
0.006226076251719871 0.0005045122372302934 -0.0004489366179444829
0.006394072430448942 0.0004966674685142777 -0.0004441429505803241
0.006588841677195731 0.0004828094261127883 -0.0004386866835430917
0.006813638528351017 0.0004613590310534469 -0.0004317917097275546
0.007072096055943784 0.0004304337472544197 -0.0004226033539273247
0.007368308390686184 0.0003877946081887586 -0.0004101883343397209
0.00770694486658103 0.0003307606364923272 -0.0003933334627325364
0.008093368976196893 0.0002560960008503408 -0.0003706041476904626
0.008533703746338992 0.0001599077614694222 -0.0003405815409691038
0.009034843094544947 3.755598591955169e-05 -0.0003018102380754362
0.009604499623608048 -0.0001164440799466281 -0.0002525870467031932
0.01025130384042009 -0.0003085424222286668 -0.0001906768132993129
0.01098495915278445 -0.00054629977599433 -0.0001129184333556676
0.01181643318053134 -0.0008385466647958942 -1.528198089610046e-05
0.01275803528261048 -0.001195526474959352 0.0001068484405525454
0.01382341174121995 -0.001629027745982388 0.0002588819577457992
0.01502764935631831 -0.002152541005739435 0.0004474099794719499
0.0163874249309937 -0.002781428480923488 0.0006803474263186608
0.01792098354650093 -0.003533046229334251 0.0009668991263373461
0.01964797451300427 -0.004426807921995866 0.001317739515462318
0.02158923824021117 -0.005484187699965882 0.001745455213167921
0.02376643198255323 -0.006728632603999246 0.002264898964023296
0.02620137240622942 -0.008185330950938818 0.002893457694757777
0.02891501118308531 -0.009880814709923311 0.003651440518406339
0.0319259691945144 -0.01184236234906288 0.004562463870423538
0.03524850611941477 -0.01409718938187387 0.005653737871650521
0.03888978345581095 -0.01667142877755317 0.006956226310210479
0.04284635135893917 -0.01958894188421664 0.008504511628624511
0.04709986354413369 -0.02287004028849172 0.01033631981397174
0.05161218345130094 -0.02653026593883951 0.01249144800829487
0.05632028207154492 -0.0305793802984842 0.01500997079099939
0.06113167235717636 -0.03502070393054828 0.01792960962962416
0.06592148519704524 -0.03985081016192524 0.02128224270336413
0.07053263889659896 -0.04505923399851387 0.02508981256054615
0.0747807074131475 -0.05062728870286513 0.02936008144986707
0.07846511526602322 -0.05652401846663842 0.03408307689847775
0.08138845650674098 -0.06269564067695794 0.03922923154789863
0.08338756478382836 -0.06904172207343341 0.04475042637152294
0.08438773315151331 -0.07536480399013001 0.05058557293001124
0.08451904322402493 -0.08126420717185535 0.05667510484997735
0.08443149019589383 -0.08590151220445905 0.06300269488548826
0.08633689543662013 -0.08743969781311546 0.06975704571300172
0.09822874158260322 -0.08160617659056049 0.07821827537573864
0.1563528365825329 -0.05846731712017754 0.09846434189860037
0.517615320175166 -0.006943751029820523 0.2713432492886735
0.8552978937250387 -0.1030963055954102 -0.2469896216540288
0.3236028231189317 -0.1125785620698527 -0.01697854314714889
0.1749551766603335 -0.103501256210485 0.01022475655759146
0.1082032354375464 -0.09052576403899039 0.01607113640223102
0.07177643953095539 -0.07809624144612413 0.01715237955157582
0.04957395603903686 -0.06717198758351284 0.01667842517278853
0.03506570214108278 -0.05778004474896652 0.01559779861932187
0.0251637202220424 -0.04974788569430988 0.01426962653388513
0.01823182093264953 -0.04288364156625073 0.01285787888120789
0.01331916585788742 -0.03701408549100732 0.01144869554962226
0.009830173351256433 -0.03198952767640032 0.01009112388094097
0.007369179524157781 -0.02768205058629857 0.008813578945619389
0.005661379122093664 -0.02398286848424845 0.007631682626943104
0.004509583686845593 -0.02079982814753601 0.006552661980193185
0.00376894890437287 -0.01805514559825346 0.005578128951619652
0.003331320068379349 -0.01568335153534321 0.004705956720725655
0.003115034600020741 -0.0136294504118851 0.003931615967228166
0.003058003816109375 -0.01184727962041094 0.003249095616658747
0.003112862037110125 -0.01029807828921486 0.002651580682595757
0.003243468718853738 -0.008949256785439098 0.002131912400248477
0.003422339712407671 -0.007773346102735979 0.001682899398416676
0.003628715393528783 -0.006747125508853443 0.001297545191674494
0.003847089753128011 -0.005850889199169657 0.0009691569164903901
0.004066079018286345 -0.005067841649806109 0.0006914465897583588
0.004277536305933744 -0.004383600218854482 0.000458569202649177
0.004475857351899037 -0.003785789435614262 0.0002650661259151227
0.004657407787723044 -0.003263707124492255 0.000105910243983576
0.004820077029690569 -0.002808054353007528 -2.351408911099092e-05
0.004962952995875623 -0.00241071174508233 -0.0001274138290593172
0.005086031278352736 -0.002064561647037216 -0.0002096737299517472
0.00518993734152292 -0.001763345123637014 -0.0002739529525730286
0.005275741301748249 -0.001501538911082905 -0.0003234249339391866
0.005344868679609084 -0.00127425017182939 -0.0003607218976526384
0.005399013911560562 -0.001077142422713489 -0.0003882017426553582
0.005439983433465371 -0.0009063785962546286 -0.0004079514878550044
0.005469584391872972 -0.0007585659247400856 -0.0004215862461626505
0.00548965580960657 -0.0006307060059166946 -0.0004301981801510809
0.005502072755344322 -0.0005201559939138473 -0.0004344471337186083
0.005508700127948451 -0.0004245943092711471 -0.000434855900675994
0.005511362498169598 -0.0003419944236853829 -0.0004321093599160329
0.005511778217714492 -0.0002705984592041659 -0.0004269776928581955
0.005511524955651229 -0.000208883316282055 -0.0004202267205964014
0.005512093666151711 -0.0001555258762192123 -0.0004125887215527152
0.005514924170129196 -0.000109377737416901 -0.0004046234823095982
0.005521385160037179 -6.944742404210338e-05 -0.0003968093906915183
0.005532796847263328 -3.489433624572883e-05 -0.0003897057876068257
0.005550461141447864 -5.030147459248886e-06 -0.0003837266487596101
0.00557564766069333 2.068247273706721e-05 -0.0003788513355984043
0.005609633569373877 4.263377072240472e-05 -0.0003748235036779939
0.005653783219491491 6.107721403514697e-05 -0.0003714096743614469
0.005709580180900641 7.614507073466561e-05 -0.000368353873482609
0.005778598280426892 8.785159765175962e-05 -0.0003655493152712371
0.005862478408188992 9.608777415065179e-05 -0.0003632590420612852
0.005962976011902618 0.0001006124018713648 -0.0003618642554723029
0.006081992019739719 0.0001010336673756317 -0.0003614572733407103
0.00622159019903456 9.678746066497565e-05 -0.0003617538544739355
0.006384096393046709 8.711671460571511e-05 -0.0003623352135235182
0.006572178076145255 7.105633704427943e-05 -0.0003627447313027529
0.006788839128660859 4.742095967295326e-05 -0.0003623898987071774
0.00703742967752135 1.478135722897642e-05 -0.0003606349568862824
0.007321709712334997 -2.857063736961602e-05 -0.0003568099320201637
0.007645939343818169 -8.467004803532282e-05 -0.0003500078181863937
0.008014988472644341 -0.0001559437251916302 -0.000339165878856835
0.00843441181145828 -0.0002452771977260121 -0.0003233225116552471
0.008910462346702152 -0.0003560764424758999 -0.0003015630630929694
0.0094501293261343 -0.0004923302850865351 -0.0002728246376710972
0.01006122383571236 -0.0006586826344896286 -0.0002356425048467148
0.01075252049004661 -0.0008605098559286642 -0.0001877676433681858
0.01153394908370984 -0.001104004160778383 -0.0001262345899545225
0.01241668898018485 -0.001396252624158484 -4.766582596140399e-05
0.01341316951428197 -0.001745297725580343 5.191077283599275e-05
0.01453716899779689 -0.002160186001427936 0.0001774231530749651
0.01580398913270516 -0.002651005762369966 0.0003348664514870437
0.01723048962519697 -0.00322888031473426 0.0005312513912759493
0.01883499161480064 -0.003905895446554783 0.0007747613260464039
0.02063714764386524 -0.004694947290171937 0.001075175403150793
0.0226576846695472 -0.005609488994817923 0.001444226268744975
0.02491789850672429 -0.006663137406651219 0.001895891802742087
0.02743880463203989 -0.007869123284735808 0.002446827997368217
0.03023986149539049 -0.009239557332167324 0.003116834118329069
0.03333712603790039 -0.01078451248111909 0.00392925876224039
0.03674066912291124 -0.01251094250778447 0.004911316389134831
0.04045113459620436 -0.01442149863577912 0.006094141531657648
0.04445539427628176 -0.01651334002183096 0.007512516970812987
0.04872141614940454 -0.01877712975660596 0.009203982470353074
0.0531927346431 -0.02119639507895676 0.0112071490364858
0.05778333847610639 -0.02374745157396642 0.01355903244215896
0.06237430187781712 -0.02639996067203281 0.01629131653002795
0.06681406666750911 -0.02911786471448574 0.01942575989324436
0.07092476464793457 -0.03185990556527969 0.02296922194154733
0.07451744930580483 -0.0345779590015469 0.02690928598318106
0.07742000254809643 -0.03721005839343818 0.03121176944111543
0.07952480264405984 -0.03966287356086353 0.03582180095929022
0.08087462923122729 -0.04177494996833162 0.04067090517203696
0.08184195680525772 -0.04324567045613935 0.04569630346782943
0.08357606929694371 -0.0435044631233622 0.05089662658880392
0.08931999157537655 -0.04149122022647049 0.05653898029358856
0.1090305280033199 -0.03543141371620738 0.06420412521528676
0.1804613842269765 -0.02354946845467513 0.0849131324883272
0.5422303003653491 -0.0102871453934394 0.2580891883822774
0.8214050192000326 -0.06856072683922729 -0.2449888996815226
0.3210129320197656 -0.08642656564692633 -0.02278927454473112
0.1827772949860119 -0.08634475467485782 0.00484385254254734
0.1187106307543329 -0.07955159406641174 0.0119562914485026
0.08217207594511489 -0.07078001510272817 0.01415999838469342
0.05899540669972386 -0.06199995871310394 0.01453703547243903
0.04333209642727649 -0.05393240261433822 0.01407504549429977
0.03231966422893887 -0.04678041337189499 0.01319194328695074
0.02438978409098269 -0.04054433046956591 0.01210010784901128
0.01860516826143792 -0.03515015625550931 0.01092125421490678
0.01436484540430165 -0.03050136601995891 0.009729909822972581
0.01126134222446669 -0.02649997066448473 0.008572698474143232
0.009006360087201194 -0.02305497583316491 0.007478284208918625
0.007389465358011714 -0.02008542670163705 0.0064632435020595
0.006253632597541445 -0.01752102008791793 0.005535881443223518
0.005479904096549089 -0.01530159817438519 0.004698846064676081
0.004977257389314706 -0.01337616970255343 0.003950998272074581
0.004675624084630957 -0.01170175949937683 0.003288721695156294
0.004520913328392085 -0.01024226099979567 0.002706883253525617
0.004471363315249006 -0.008967370980680118 0.002199500650083724
0.004494817932363688 -0.007851635006507303 0.001760202464280082
0.004566649104064397 -0.006873632172115714 0.001382563217191568
0.004668154178520048 -0.006015274970224963 0.001060289016639885
0.004785309656021372 -0.005261225621088039 0.000787370683848671
0.004907786831382118 -0.004598412587643496 0.0005581596619500747
0.005028173655449776 -0.004015635110745487 0.000367339519904178
0.005141333758959975 -0.003503235480103198 0.0002099881973409981
0.005243903814738843 -0.003052839607731916 8.157067427928987e-05
0.005333919390545897 -0.002657143382728324 -2.205675495960809e-05
0.00541048410532155 -0.002309742793785915 -0.000104717025009565
0.005473463825906562 -0.002004996824709825 -0.0001699991590403965
0.005523279310552973 -0.001737915930000947 -0.0002210081779114009
0.005560793188337658 -0.001504071652222079 -0.0002603117411158382
0.005587202099366371 -0.001299528541963833 -0.0002901947725430806
0.005603870041417909 -0.001120787458626751 -0.0003126601560390287
0.005612211950772978 -0.0009647365822996353 -0.0003292445984807455
0.005613716026794597 -0.0008286118108158536 -0.000340979687937222
0.005609941125055062 -0.0007099625057577347 -0.0003484802344388156
0.00560246491265051 -0.0006066197177111996 -0.0003522320486151002
0.005592849727579914 -0.0005166737614678936 -0.000352885631381416
0.00558257884614229 -0.0004384500718395315 -0.0003511787809923153
0.005573024052008583 -0.0003704839668616275 -0.0003478495266002452
0.005565495017659224 -0.0003114993092776399 -0.0003436114781613096
0.005561268150712325 -0.0002603907456504567 -0.0003390146069761563
0.0055615607550882 -0.0002162096448954903 -0.0003345295524016486
0.005567546984736257 -0.00017815567703919 -0.0003306999764121042
0.005580385250093474 -0.0001455706906060095 -0.0003279130859159481
0.005601204771201285 -0.0001179336255243538 -0.000326132889021574
0.00563114755004595 -9.485783543214603e-05 -0.0003251194223200691
0.005671453055330984 -7.608521042086827e-05 -0.0003246779349760905
0.0057234868872146 -6.147862913207788e-05 -0.0003245823319087741
0.005788701738522168 -5.102363786497275e-05 -0.0003247357204074178
0.005868610016468305 -4.483509196965931e-05 -0.0003254192732853889
0.00596482899218524 -4.316311161274947e-05 -0.0003270494489278452
0.006079107257621683 -4.64024940338175e-05 -0.0003297499792670193
0.006213337443510484 -5.510588168089371e-05 -0.0003332814272549935
0.006369656097346492 -7.000200821495201e-05 -0.0003373015643201625
0.006550527137997361 -9.201395503030087e-05 -0.0003414414401328609
0.006758731008704497 -0.0001222782458860664 -0.0003451961104093391
0.006997365821692202 -0.0001621697249109519 -0.0003480363012227451
0.007269904824381264 -0.0002133333687775889 -0.0003494226722430501
0.007580273858296007 -0.0002777194912605675 -0.0003485958050999362
0.007932950286806587 -0.0003576306499845893 -0.0003446712579449326
0.00833303925210927 -0.0004557786254480186 -0.0003369073316565671
0.008786289007838601 -0.0005753389109904448 -0.0003246406622943952
0.009299124729586158 -0.0007200035593268135 -0.0003071064131932663
0.009878731738329743 -0.0008940410814009528 -0.0002832089196884677
0.01053319389377601 -0.001102351533617689 -0.0002511454549407261
0.01127168293789922 -0.001350526513280069 -0.0002084704379981586
0.01210456648177369 -0.001644908626766059 -0.0001524025178446264
0.01304342839260828 -0.001992631852601602 -7.965288186347007e-05
0.01410118499951775 -0.002401634368788056 1.391873262963184e-05
0.01529229000031815 -0.002880652020254064 0.0001334083963623064
0.01663282529425165 -0.003439169878108501 0.0002848204009902274
0.018140481980589 -0.004087304102901393 0.0004752191104475071
0.01983452549185419 -0.004835595346496605 0.0007131514668546647
0.02173566041702423 -0.005694695061285604 0.001009027822881371
0.02386567707371618 -0.006674904400937948 0.001375449545740111
0.02624677876627593 -0.007785554327496528 0.001827701157476846
0.02890049353298707 -0.009034185861896278 0.002384301483117926
0.03184601134458451 -0.01042553097354704 0.003067530300986014
0.03509774324613384 -0.01196030533943895 0.003903894839009859
0.0386619375059998 -0.01363386915879197 0.004924361736794583
0.04253224593719705 -0.01543484512576365 0.006164268204806585
0.04668429672031427 -0.01734389627484877 0.007662587213211154
0.0510696273982906 -0.01933287178575095 0.009460315170165632
0.05560982759544021 -0.02136459743428611 0.0115977199784935
0.06019239204861444 -0.02339351590597953 0.01411027607339909
0.06467058720484144 -0.02536714317649076 0.01702343314620861
0.06887041640730414 -0.02722787507997181 0.02034668781102431
0.07260858828301994 -0.02891386916320486 0.02406804030274534
0.07572663782697243 -0.03035672029365511 0.02815038388769883
0.07815003037102992 -0.03147247945911808 0.03253193604097551
0.07999286027092591 -0.03214169043082633 0.03713379451119966
0.08176509525339355 -0.03217471941870034 0.04188193984142171
0.08485160884582613 -0.03126580154110616 0.04677039743668966
0.09281466497905813 -0.02897213009330264 0.05208582989680303
0.1156850863272752 -0.02487704678231136 0.05947713936208044
0.1893521052481582 -0.01945946933304395 0.07991728917359076
0.5417078174739179 -0.01729912997166965 0.2491283784175077
0.7838126542834235 -0.05063898058873591 -0.2414648504305603
0.3118459528611609 -0.07194909067933798 -0.02814757982431265
0.184556940710952 -0.07648559355130272 -0.0007449756916463133
0.1250802065433174 -0.07367072855574257 0.0073402428033839
0.0900328727875977 -0.06763267792992257 0.01064104232897487
0.06690826727846717 -0.06052650989458748 0.01196096239403704
0.05069024367157952 -0.05342263470506087 0.01223597516846385
0.03891075337505652 -0.04680383750120225 0.01190424026674905
0.03018097949602802 -0.04085157665477654 0.01121537781500116
0.02364150652605891 -0.03559985942398106 0.01032689142819696
0.01872152212920632 -0.03101442781102579 0.009342710738349436
0.0150212889154099 -0.02703270446279588 0.008332150378859095
0.01224985841557381 -0.02358370175889622 0.0073408613076826
0.01018964443628007 -0.02059769733007024 0.006397913748909503
0.008674902963720543 -0.01801063433567359 0.005520691632478148
0.007577857961362001 -0.01576577726649494 0.004718375217295676
0.006799272044855218 -0.01381397118686029 0.003994483302397399
0.006261762423920157 -0.01211319974596594 0.003348692206972057
0.005904904998048886 -0.0106278417011811 0.002778174619429921
0.005681554421550892 -0.009327833351925005 0.002278548119245604
0.005555035023587283 -0.008187838538353191 0.001844539162326454
0.005496956905680613 -0.00718650011204442 0.001470466787828648
0.005485503521927635 -0.006305772132269625 0.001150535882331686
0.005504082380888926 -0.005530350738681552 0.0008790641760032904
0.005540248015786154 -0.004847195067502531 0.0006506131599389853
0.005584842927213813 -0.004245131720277487 0.0004599996453285578
0.005631288630664298 -0.00371452515128101 0.0003023849900202701
0.005675025405020261 -0.003247017317350417 0.0001732868455623168
0.005713089728195378 -0.002835312303008514 6.859303288903222e-05
0.005743743922041978 -0.002473004538326197 -1.549196328059613e-05
0.005766139815259828 -0.002154442920042693 -8.252075292906449e-05
0.005780087078701006 -0.001874622866970684 -0.0001355625587276046
0.005785919287854388 -0.001629095242704024 -0.0001771530693808129
0.005784367943280997 -0.001413897901615875 -0.0002095384639551903
0.005776384444176162 -0.001225500623572229 -0.0002346697956782559
0.005763016921955582 -0.001060758865835254 -0.0002540296521131341
0.005745425089450425 -0.0009168728002640056 -0.0002686097519309535
0.005724871984325834 -0.000791352808815576 -0.0002790009170165067
0.005702666583697022 -0.0006819885292128551 -0.0002856712117210598
0.005680125990760042 -0.0005868263176889726 -0.0002892531783679097
0.005658511955027573 -0.0005041463022623589 -0.0002904657340954857
0.00563899725263064 -0.0004324407504615961 -0.0002900258566264737
0.005622711072114027 -0.0003703946832976956 -0.0002886308849131711
0.005610763158743056 -0.0003168702479884318 -0.0002868264908428885
0.005604215405140596 -0.0002708946562815612 -0.0002850851369305738
0.005604095584998854 -0.0002316501712195968 -0.0002839440240953109
0.00561142195512267 -0.0001984657905601142 -0.0002837699627710604
0.005627188330853961 -0.0001708112464867068 -0.0002845092424170603
0.005652405569761843 -0.0001482915113709064 -0.0002859312363623979
0.005688187539426607 -0.0001306430409551823 -0.0002878748448328815
0.005735777080142784 -0.0001177290743947358 -0.0002901446931938367
0.005796499079816755 -0.0001095418609614503 -0.0002926564445281806
0.005871730585411895 -0.0001062112696845424 -0.0002957065502314535
0.005962947456297482 -0.000108010635362824 -0.0002997371068812651
0.006071748021377735 -0.0001153631613668874 -0.000304893641695189
0.006199860073264801 -0.0001288525565790044 -0.0003109679418676948
0.006349237612279438 -0.0001492377938428971 -0.0003176773671596523
0.006522143250558539 -0.0001774744399188933 -0.0003247231676299342
0.006721132979069131 -0.0002147369391655498 -0.0003316729600603577
0.006949052138763391 -0.0002624439486883068 -0.0003380861622709295
0.007209090623535876 -0.000322290705343608 -0.0003435295614663557
0.007504853506321 -0.000396280680227974 -0.0003473611214538364