# OOMMF: rectangular mesh v1.0
# Segment count: 1
# Begin: Segment
# Begin: Header
# Title: 
# Desc: time = 1.0437322628415058e-11
# Desc: stepsize = 5.473673951853235e-13
# Desc: step = 20
# meshunit: m
# valueunit: (none)
# valuemultiplier: 218610.4933496938
# xmin: 0
# ymin: 0
# zmin: 0
# xmax: 4e-07
# ymax: 1e-07
# zmax: 4e-09
# ValueRangeMaxMag: 1
# ValueRangeMinMag: 0.003874454183911774
# meshtype: rectangular
# xbase: 2e-09
# ybase: 2e-09
# zbase: 1e-09
# xstepsize: 4e-09
# ystepsize: 4e-09
# zstepsize: 2e-09
# xnodes: 100
# ynodes: 25
# znodes: 2
# End: Header
# Begin: Data Text
0.8314712993687662 -0.5374812309009853 -0.1397175995590521
0.2492253898378995 -0.3674318675184166 0.06896131858830645
0.1169732852461021 -0.295368896223999 0.083451725505167
0.06278298339724621 -0.2495867047245678 0.08000219614989704
0.03477399901571895 -0.2140775366528128 0.0730855420234852
0.01861901164507404 -0.1843905446459057 0.06545722139995602
0.00879294919284637 -0.1588974884871531 0.05795300567558399
0.002699126619980098 -0.1368010814063132 0.05088490490589068
-0.001051082549756128 -0.1175911985597079 0.04437355103353333
-0.003269605321908517 -0.1008784935375372 0.03845531416393352
-0.004462398229364168 -0.08633925765195861 0.03312544318593414
-0.004959661766080729 -0.07369537150048779 0.0283584660154547
-0.004984345573621511 -0.06270545554014996 0.02411867495827755
-0.004690847544570757 -0.05315955655140731 0.02036586235917008
-0.004188111118364443 -0.04487504584892594 0.01705860665473465
-0.003554028181288012 -0.03769305988235943 0.01415616108949647
-0.002844751302547064 -0.03147532263454484 0.01161950566721999
-0.002100895890373101 -0.02610131878771742 0.009411898955878434
-0.001351775140944645 -0.02146582011600578 0.007499128649297081
-0.0006183556900680603 -0.01747675041502119 0.005849583963868021
8.463786862765338e-05 -0.01405335977137758 0.004434222668880022
0.0007471961971600306 -0.01112468179433922 0.003226480399152068
0.001362897542451695 -0.008628228439469681 0.002202148270271743
0.001928060379926378 -0.006508890427391252 0.001339237144811665
0.002441096279503359 -0.004718010109267307 0.0006178362870756376
0.002902008347758658 -0.003212596480113222 1.997341225113218e-05
0.003311997460655094 -0.001954655048302693 -0.0004705227794596679
0.00367314999691044 -0.0009106170392427242 -0.0008681547589591176
0.00398818853232985 -5.084428405184985e-05 -0.001185883856847179
0.004260272135581264 0.0006508017251065089 -0.001435252048824794
0.004492836454536236 0.001217337214740185 -0.001626498875592174
0.004689466450058193 0.001668990032315696 -0.001768672592553501
0.00485379609857391 0.002023498481694612 -0.001869736136761225
0.004989430657864398 0.002296376256771611 -0.00193666743943015
0.005099887971122597 0.002501152412231972 -0.001975554064030676
0.005188555801404994 0.002649587853651143 -0.001991682206030109
0.005258662612635342 0.002751870032294858 -0.001989619468691862
0.005313259695890519 0.002816788876995551 -0.001973292122608985
0.005355212661349648 0.00285189676168917 -0.001946055645568887
0.005387200761814547 0.002863650036800059 -0.001910760063581647
0.005411722601355984 0.002857537228113739 -0.001869808225078293
0.005431107081447274 0.002838193225582566 -0.001825209363587906
0.005447528531138714 0.002809499461535434 -0.001778625397626944
0.005463025311625777 0.002774671539835447 -0.00173141317552267
0.005479521148743593 0.002736336210601875 -0.001684659322138445
0.005498848818721366 0.002696594572246069 -0.001639211755320117
0.005522775787039656 0.002657075697755795 -0.001595703666257311
0.005553031650434419 0.002618979406144761 -0.001554574819698021
0.005591337231509458 0.002583107744007294 -0.001516085091623916
0.005639435459838189 0.002549885780690599 -0.001480325834859304
0.005699124064813115 0.002519373163035693 -0.001447223042124061
0.00577229040874365 0.002491262498937409 -0.001416538586973222
0.005860948716048783 0.002464867886058503 -0.001387862542240472
0.005967280142449388 0.002439101366932676 -0.001360603426666805
0.006093676105275263 0.002412435725916392 -0.001333968435216945
0.006242785515345832 0.002382853044335122 -0.001306940960347502
0.006417566436424956 0.002347779139659813 -0.001278246472548487
0.006621342925243777 0.002303998437109722 -0.001246314412736035
0.006857867736994586 0.002247550744831159 -0.00120922617332141
0.00713139166492617 0.002173606183715648 -0.001164656966891234
0.007446740243926682 0.002076314042099705 -0.001109800693544813
0.007809398598166517 0.001948623374869759 -0.001041285551048669
0.008225604986637332 0.001782072803531196 -0.0009550684829489928
0.008702453512024495 0.001566542029106534 -0.0008463159783781527
0.009248006092689718 0.001289963783625325 -0.0007092583270961941
0.009871413263338714 0.000937991349460048 -0.000537024408904895
0.01058304264595904 0.0004936145163692415 -0.0003214432787865912
0.01139461280965374 -6.327747872913076e-05 -5.281914840448112e-05
0.01231932854574587 -0.0007563886872461521 0.0002803345112697453
0.01337201129154669 -0.001613568750980837 0.0006915952553749935
0.01456921529012848 -0.002667420895121339 0.001196980217444643
0.01592931541560854 -0.003955958469798264 0.001815335416744902
0.01747254704347034 -0.005523303405943982 0.002568777130209464
0.01922097026436809 -0.007420401801791461 0.003483173939075919
0.02119832089309721 -0.009705727087335534 0.004588673746782436
0.02342969809948701 -0.01244592837746254 0.005920254370737605
0.02594102402480231 -0.01571636240295678 0.007518286280509437
0.02875819408058524 -0.01960142661920782 0.009429064789580555
0.03190582094830385 -0.02419460411032914 0.01170526973880387
0.03540546308469375 -0.02959809768331556 0.01440627118704251
0.03927322690602261 -0.03592193079096087 0.0175981892670777
0.04351665000540941 -0.04328239218725624 0.02135357022337811
0.04813082463921552 -0.05179972074881959 0.02575052710428848
0.05309382068965061 -0.06159496420286825 0.03087115990844477
0.05836163017115783 -0.07278603539773783 0.03679908765185361
0.06386308089585194 -0.08548305151361597 0.0436159577221177
0.06949543273052999 -0.09978313756995792 0.05139691730947944
0.07512160988204564 -0.1157648912280286 0.06020520317961228
0.08057012268473021 -0.1334825723751065 0.07008626593045822
0.08563854158056106 -0.1529597000086052 0.08106210905916823
0.09010079261670184 -0.1741808292655224 0.09312674047086353
0.09371766686391209 -0.1970784851757538 0.1062436097794476
0.09624932870809648 -0.2215085183121963 0.1203455249614585
0.09746964798661764 -0.2471989385772363 0.1353370882105901
0.09719002180298947 -0.2736360391085564 0.1511002418697536
0.09533492990782419 -0.2997878720202731 0.1675085438339023
0.09226392424697194 -0.3233385723941618 0.1844901904117192
0.09040477972520534 -0.33808398295342 0.2024509948900933
0.1056993255246615 -0.3216372848669444 0.226735417311803
0.3327203749569392 -0.133200052345217 0.3583264193403388
0.8778004797829032 -0.1883568682697425 -0.2400014163577937
0.3094137993503047 -0.1717870580210841 -0.005914470216631459
0.1560842125821999 -0.1429864749173641 0.01916176883471752
0.09140310605899306 -0.119710237547051 0.02316116881043672
0.05761348939166047 -0.1013924680926281 0.02289997391416353
0.03765310555254268 -0.08649547903013634 0.02141504099008022
0.02497270565289346 -0.07407410759372408 0.01953784431377182
0.01657513052501807 -0.06356996400073034 0.01756307022361897
0.01089779410188106 -0.05462005944359292 0.01561754138296026
0.007040556216679842 -0.04696232914183767 0.01376311114866884
0.004443833537960241 -0.04039284086492834 0.01203127297612424
0.002739289177774062 -0.03474595071275199 0.01043716628421159
0.001674050604629003 -0.0298842166703043 0.008986127822470267
0.001069084728162737 -0.02569247534636876 0.007677276620104015
0.0007947631567359416 -0.02207380100213169 0.00650577833605477
0.0007557154992390638 -0.01894642227323601 0.005464358737770713
0.0008810046673204081 -0.01624122894841743 0.004544335316039706
0.001117513366620472 -0.0138996926795335 0.003736321302906252
0.001425356715539798 -0.01187212558315043 0.003030708685248467
0.001774620387712359 -0.01011622362558868 0.002417990978725046
0.002142991748283197 -0.008595848061490647 0.001888978597320408
0.002514007475108377 -0.007280019970616633 0.001434933524770713
0.00287573571988224 -0.006142084097077652 0.001047652955120732
0.003219770087646311 -0.005159020628554375 0.0007195119786713764
0.003540451329044584 -0.004310878170149517 0.0004434829860759533
0.00383425798514754 -0.003580307993323571 0.0002131338186816608
0.004099324549161716 -0.002952177047051171 2.261602427913917e-05
0.00433505738406259 -0.002413253158088039 -0.000133358182115314
0.004541826987196856 -0.001951940823620623 -0.000259542481151495
0.004720720662896302 -0.001558062278535834 -0.0003601888817804834
0.004873343778755175 -0.001222674270109908 -0.0004390806979544833
0.0050016605621975 -0.0009379142970734781 -0.000499568027645809
0.005107867498226478 -0.0006968677834339141 -0.0005446025157017545
0.005194293566647985 -0.0004934578570883086 -0.0005767721914267444
0.005263323020018977 -0.0003223480724654758 -0.0005983352974617509
0.005317336793174193 -0.000178858105185582 -0.000611252238266128
0.005358669576826164 -5.889073822177727e-05 -0.0006172168653881225
0.005389579756602393 4.113250536462428e-05 -0.0006176842091530012
0.005412230165548744 0.0001243293719214109 -0.0006138983649832494
0.005428677563774022 0.0001934061936457543 -0.0006069153279031795
0.005440869458020406 0.0002507024717022515 -0.0005976271440786297
0.005450646695813455 0.0002982312036370471 -0.0005867796222452465
0.005459750946046467 0.0003377125451261876 -0.0005749927610811835
0.005469835933537366 0.0003706045214656468 -0.0005627734056400978
0.005482481938947152 0.0003981293785471445 -0.0005505321613448987
0.005499212772317472 0.0004212955236813757 -0.0005385912200739711
0.005521515061425839 0.0004409151214354588 -0.0005271980324250722
0.005550859330086772 0.0004576203482618922 -0.0005165285630119404
0.005588722954721938 0.0004718726019912102 -0.000506697947399664
0.005636614707645401 0.0004839708058697243 -0.0004977593723526787
0.005696101166607397 0.0004940542524209989 -0.0004897118136561426
0.005768834883006835 0.0005021025724122023 -0.0004824945949563553
0.005856584747192423 0.0005079295703353954 -0.0004759920909120166
0.005961268594332903 0.0005111764417000994 -0.0004700238016671907
0.006084988605985685 0.0005112955237778394 -0.0004643456243894194
0.00623006969927419 0.0005075329083052095 -0.0004586349834800003
0.006399101546133519 0.0004989025778128953 -0.0004524879099065189
0.006594984532301736 0.0004841564093117932 -0.0004453983766778524
0.00682098036389662 0.0004617441140618366 -0.0004367499470357449
0.007080767712133334 0.0004297702229074895 -0.0004257879436628373
0.007378503605660685 0.0003859365769852156 -0.0004116037994140671
0.007718890984602387 0.000327480011882812 -0.0003930979754551094
0.00810725300220789 0.0002510960521872361 -0.0003689542956488344
0.00854961432764513 0.0001528536716966237 -0.0003375905438104454
0.009052789665374461 2.809410324001374e-05 -0.0002971188782677183
0.009624479213890248 -0.0001286778932265268 -0.000245279662571767
0.0102733703663767 -0.0003239224972725498 -0.0001793824201817993
0.01100924410271013 -0.0005652009165641187 -9.62165354772225e-05
0.01184308335738844 -0.000861326174778992 8.035025773016022e-06
0.01278717897902935 -0.001222519991340284 0.0001379170518246095
0.01385522644477224 -0.001660576983311092 0.0002988261964318946
0.0150624030371969 -0.002189019567058138 0.000497176197862745
0.01642541054479263 -0.002823246047374857 0.0007405731893204154
0.01796246204023545 -0.003580645063489039 0.001038038690808412
0.01969318245607022 -0.004480665260875601 0.001400249753884407
0.021638381502601 -0.005544811327982103 0.001839830425905453
0.023819642914817 -0.006796542215527239 0.002371660997588756
0.0262586572154191 -0.008261029440960991 0.003013228987596521
0.02897620596564771 -0.009964756117476926 0.003784975920417687
0.03199068832125976 -0.01193491449109117 0.004710639095111315
0.03531606902365132 -0.01419859266677297 0.005817511149420086
0.03895913292797142 -0.01678175346858438 0.007136567944622633
0.04291596674618704 -0.01970805099203752 0.008702331702991355
0.04716767623664393 -0.0229975618707774 0.01055235220667425
0.05167550572070037 -0.02666558299331707 0.01272611847779704
0.05637577455228193 -0.03072164344293293 0.0152632581674648
0.06117537417222988 -0.03516887381464368 0.01820089190471852
0.06594894103909346 -0.04000372970870132 0.02157017111682707
0.0705391404786043 -0.04521572695137957 0.02539220302809454
0.07476165552653122 -0.05078627128622798 0.02967388201102704
0.07841645206380646 -0.05668460722857986 0.03440442605935342
0.08130710247152879 -0.06285723638996771 0.03955366019433693
0.08327180493125193 -0.0692040592157253 0.04507312282202439
0.08423734147026347 -0.07552799102073969 0.050901590464035
0.08433458035281435 -0.08142885388476047 0.05697969183012042
0.08421246626605575 -0.08606910154266402 0.06329198780625768
0.08607813221372282 -0.08761347811749413 0.0700283323859382
0.09790993113992326 -0.08179319386918192 0.07846767937100617
0.1558972266881669 -0.05868191979408667 0.0986695410539965
0.5166151145142022 -0.00720415731354164 0.2712559172193945
0.8536748361461032 -0.1032187130624142 -0.2461591762645316
0.3230834594999744 -0.1128670432345818 -0.01654259303695113
0.1747471541951772 -0.1038592301460974 0.01059486573428224
0.1081140329270376 -0.09089643550533869 0.01641437175981533
0.07173446893996557 -0.07845007506590114 0.01747727117702232
0.04954894453311814 -0.06749605652897948 0.01698640328962902
0.03504437952346718 -0.0580703149127231 0.01588811745789463
0.02514043923326499 -0.05000475644484963 0.01454151734890976
0.01820450437472032 -0.04310955133125365 0.01311143329849741
0.01328748706479214 -0.03721225436432803 0.01168458494189287
0.009794612241918247 -0.03216330830003591 0.01031020346891364
0.00733050219183953 -0.02783461028051892 0.009016790153676062
0.00562040354408711 -0.0241170541677605 0.007820038320802119
0.004467082276957279 -0.02091812815338668 0.006727201681893192
0.003725609318752213 -0.01815970073492094 0.005739874544914228
0.003287732592629663 -0.01577598804914513 0.004855894293181149
0.0030716957838152 -0.01371172117832436 0.004070667591758711
0.003015325750562357 -0.011920504955443 0.003378110717278669
0.003071181188616473 -0.01036338359579674 0.002771308918928395
0.00320305641574736 -0.009007604265586756 0.002242982152089339
0.003383406457978831 -0.007825561450503416 0.001785802093817559
0.00359141626123128 -0.006793918094312646 0.001392611153883101
0.003811530440993992 -0.005892868387887874 0.001056562115808243
0.004032318781667159 -0.005105528727299169 0.0007712100560313361
0.004245590590134432 -0.004417439164946299 0.0005305613747344487
0.004445696576438592 -0.003816154702918423 0.0003291009137237916
0.004628973990225536 -0.00329091075840573 0.0001617953984470231
0.004793302960383173 -0.002832354093490717 2.408786672885641e-05
0.004937750261942015 -0.002432322426318545 -8.812108357664702e-05
0.005062282832440016 -0.002083664411862189 -0.0001784948121701792
0.005167537340936502 -0.001780094581996059 -0.0002502890835591499
0.005254635605272751 -0.00151607388945889 -0.000306380545092475
0.005325037458652303 -0.001286710280261481 -0.0003492979213638483
0.005380424607707603 -0.001087678910430958 -0.0003812524608757969
0.005422610039475085 -0.0009151539033529716 -0.000404167881354875
0.005453468758275271 -0.0007657506032723947 -0.0004197099951982
0.005474885937867277 -0.0006364771881820044 -0.000429313124831538
0.005488719682602417 -0.0005246932155032135 -0.000434207452167702
0.005496775535550113 -0.0004280717385818888 -0.0004354407223519441
0.005500790857904908 -0.0003445694567703415 -0.0004339027089002648
0.005502426960134889 -0.0002723979711097041 -0.000430341729220872
0.005503267792447283 -0.0002099996293296104 -0.0004253861447478857
0.005504823616661962 -0.0001560256249345526 -0.0004195556559110707
0.00550853900050993 -0.0001093185695796071 -0.0004132800506129938
0.005515803978700259 -6.88940595871715e-05 -0.0004069055002894826
0.005527968124443942 -3.392948466522865e-05 -0.0004007108961053979
0.005546356708484063 -3.750865256874947e-06 -0.0003949094657759109
0.005572288991335911 2.217497552545142e-05 -0.0003896630336995277
0.005607098076775517 4.424843253725875e-05 -0.0003850792735866913
0.005652152603416766 6.273910115090445e-05 -0.0003812241308498501
0.005708879905131501 7.779056531481297e-05 -0.0003781149485180604
0.005778791082285505 8.941613430446798e-05 -0.0003757311324365457
0.005863507784691566 9.749772119827186e-05 -0.0003740032452826916
0.005964791269468548 0.000101777170385192 -0.0003728217845214976
0.006084573676922499 0.0001018483677276876 -0.0003720221489257812
0.006224992183184689 9.71407469126752e-05 -0.0003713911314145966
0.006388426105051597 8.690561900862423e-05 -0.0003706474134103281
0.006577537680791866 7.019066950605989e-05 -0.0003694450449039438
0.006795316726292261 4.581674826766981e-05 -0.0003673487812076153
0.007045129929474187 1.234423606888795e-05 -0.0003638333913625972
0.007330775081014558 -3.196163419766121e-05 -0.000358252683727109
0.007656541001494734 -8.917706110304704e-05 -0.0003498328806928193
0.008027273503416268 -0.0001617652142526061 -0.0003376334924826556
0.00844844802981227 -0.000252636314856284 -0.000320532121206168
0.008926249199472228 -0.0003652074920582961 -0.0002971742840062395
0.009467657535133348 -0.0005034739432979037 -0.0002659456741539946
0.0100805431341518 -0.0006720820457789081 -0.0002249063882448592
0.01077376564273981 -0.0008764114971306352 -0.0001717445806631187
0.01155727899210787 -0.00112265254945445 -0.0001036879614295071
0.01244223808181017 -0.0014178880841608 -1.74295670498665e-05
0.01344110279919534 -0.001770161830406965 9.099451057026948e-05
0.01456773163839614 -0.002188533541521453 0.0002263211208050993
0.0158374535116992 -0.002683105671689595 0.0003942323329827634
0.01726709990887984 -0.003265011655995076 0.0006015325194165006
0.01887497170863455 -0.003946339575270257 0.0008563917332111999
0.02068070285267453 -0.004739979818978414 0.001168605878835184
0.02270496857306115 -0.005659361760132513 0.001549930099603312
0.02496896562940154 -0.006718056343136861 0.002014432487918709
0.02749356989073442 -0.007929220423040104 0.002578908717031133
0.03029805121252117 -0.009304862386034913 0.00326328625889236
0.03339820573719286 -0.0108549216136916 0.004091019811485779
0.03680375782848325 -0.01258619068973509 0.005089358737346725
0.04051490887959503 -0.0145011376498666 0.006289413732856864
0.04451798796064512 -0.01659673045889478 0.007725823313625543
0.04878032675224752 -0.01886345178570921 0.009435857062603614
0.05324476179662887 -0.02128468697454376 0.01145770371751086
0.057824581992797 -0.02383668015005494 0.01382779554826488
0.06240025920096174 -0.0264891260917428 0.01657708165056211
0.06681985618711549 -0.02920613221052902 0.01972645764167993
0.07090548918434811 -0.03194674875649812 0.02328185836567812
0.07446865442642731 -0.03466328984762816 0.02722998824967917
0.07733816109513379 -0.03729431753178796 0.03153598271508682
0.07940775449821806 -0.03974705996142627 0.03614457228770445
0.08072171284366907 -0.04186059829311758 0.04098712623907326
0.08165319307198762 -0.0433348476518274 0.04600111421516519
0.08335005758252605 -0.04359990436000447 0.05118617591637289
0.08904978794050669 -0.04159671977084132 0.05681064241143181
0.1086925081979339 -0.03555251846505715 0.06445375717905201
0.1799745471085236 -0.02369410370294068 0.08511610702060288
0.54118168453741 -0.01046798167030221 0.2579832886091143
0.8195808547988851 -0.06863256281409051 -0.2441537033063914
0.3203925122961607 -0.08661939468626031 -0.0223867450821505
0.1825249245115141 -0.0866034875756418 0.005177998327769639
0.1186143141896308 -0.07983854650218788 0.01226874278976412
0.08214412941287559 -0.07106899512972675 0.01446176140205027
0.05899467689871633 -0.06227531585866846 0.01482952541267988
0.04333881428751631 -0.05418621375278523 0.01435638502171639
0.03232460492115516 -0.04700967441222714 0.01345989821969525
0.02438904559571372 -0.04074889479373123 0.01235342916362015
0.01859760739701631 -0.03533140206839099 0.01115955197490413
0.0143506996276492 -0.03066137985025952 0.009953225443575197
0.0112414432355361 -0.02664106757400253 0.0087813504834094
0.008981738922127332 -0.0231794338617375 0.007672818623883318
0.007361164250364505 -0.02019535435671213 0.006644354723764742
0.006222616875634746 -0.01761830084637546 0.005704340149745322
0.005447024515756646 -0.01538787976013488 0.004855454792556081
0.004943242915048989 -0.01345287537289678 0.004096548374432944
0.004641088233641624 -0.01177011096424503 0.003423967838509398
0.004486364438358681 -0.01030330348664729 0.002832509210866036
0.004437218351344999 -0.009021998769822652 0.00231608582352356
0.004461411236651521 -0.007900613168919889 0.001868203047851674
0.00453424195859452 -0.006917615669096773 0.001482280312817962
0.004636944494496252 -0.006054823442057605 0.001151875498730522
0.004755437301523863 -0.005296816082459437 0.0008708264976242647
0.00487933811213381 -0.004630449372024162 0.0006333456202698361
0.005001181653407323 -0.004044459194649163 0.0004340683600503404
0.005115794781105427 -0.003529132607124291 0.0002680809849995277
0.005219795004269639 -0.003076050143557354 0.0001309225512213389
0.005311187150621369 -0.002677871303473871 1.857873807193045e-05
0.005389038588431472 -0.002328164240933135 -7.253844790020452e-05
0.005453218141605346 -0.002021267737331812 -0.0001456130395578678
0.005504186843094702 -0.001752181367498044 -0.000203454451574484
0.00554283137197501 -0.001516473388895658 -0.0002485265513190008
0.005570332318584345 -0.001310209974595546 -0.0002829786667812912
0.005588061500283187 -0.0011298943243341 -0.0003086761987996761
0.005597502893438046 -0.0009724165787155132 -0.0003272291693480786
0.005600193268050622 -0.0008350125149411267 -0.0003400216650872649
0.005597678658136271 -0.0007152281213049602 -0.0003482357568957549
0.005591484077434614 -0.0006108883391143536 -0.0003528785539578056
0.005583093631559782 -0.0005200714375853665 -0.0003548005186726002
0.005573939395805943 -0.000441086555439903 -0.0003547197927518004
0.00556539693592612 -0.0003724518275629478 -0.0003532346581438062
0.005558786536500283 -0.0003128785407278221 -0.0003508452921193563
0.005555378568679869 -0.0002612541477747298 -0.0003479605375798811
0.005556402588010018 -0.0002166297718149181 -0.0003449174833728216
0.005563059001646432 -0.0001782077287813 -0.000341982907728549
0.005576533288772668 -0.0001453343634402224 -0.0003393711277066136
0.005598011917808729 -0.0001174892726759676 -0.0003372405334217677
0.005628700219290024 -9.428342393838756e-05 -0.0003357100839320634
0.005669841595450604 -7.545270669893422e-05 -0.0003348513064631018
0.00572273852437468 -6.085941850859032e-05 -0.000334703678903528
0.005788774921915436 -5.049064226346338e-05 -0.0003352623704605903
0.005869440460558214 -4.446573633989326e-05 -0.000336492557680345
0.00596635656238474 -4.303771801745342e-05 -0.0003383130416573306
0.006081304760795895 -4.660744343142725e-05 -0.0003406093188156871
0.006216257293331318 -5.57314146674752e-05 -0.0003432130219065838
0.006373410694687312 -7.114135464296403e-05 -0.0003459133001993851
0.006555222391209923 -9.37595173065731e-05 -0.0003484317931444462
0.006764451127795324 -0.0001247269941383995 -0.0003504315347474935
0.007004201375784286 -0.0001654253768772721 -0.0003514868379835847
0.007277972602376622 -0.0002175150993943159 -0.0003510884876585536
0.007589713708338141 -0.0002829675561337835 -0.0003486074113478094
0.00794388354288076 -0.0003641119999053148 -0.0003432942572979681
0.008345517928177278 -0.000463678577806294 -0.0003342349294174083
0.008800304061696613 -0.0005848561302740685 -0.0003203415768483489
0.009314662739081494 -0.000731342426623647 -0.0003002967357361035
0.009895839001437394 -0.0009074103960618205 -0.0002725309939516736
0.01055200132771728 -0.001117964236276711 -0.0002351502087479258
0.01129234908570151 -0.001368603278546679 -0.0001858921385890188
0.01212722704773237 -0.001665671478788624 -0.0001220274023964145
0.01306824430446134 -0.002016304135796006 -4.028254236990755e-05
0.01412839260087077 -0.002428442541162307 6.330057554413749e-05
0.01532215546498583 -0.002910829666590137 0.0001934949225663556
0.01666559427133021 -0.003472949115768024 0.0003560938447553375
0.01817638881358987 -0.00412490744961293 0.0005581224890099502
0.01987379884167249 -0.004877223157733953 0.0008081389033141919
0.02177849619149139 -0.005740511826069823 0.001116558054898816
0.02391219625936008 -0.00672501615315118 0.001496073847309629
0.02629698953280865 -0.007839984648114045 0.001962105651458368
0.02895424389806982 -0.009092847198042382 0.002533318051320835
0.03190291647997257 -0.01048819696141868 0.003232108982233802
0.03515709554489022 -0.01202658262612099 0.004085052445657608
0.03872260062025745 -0.0137031768338562 0.005123116197946411
0.0425925379433661 -0.01550640474812966 0.006381531108761309
0.04674187189233835 -0.01741674310073996 0.007899025097255874
0.05112138260514862 -0.01940589312121301 0.00971619724701063
0.05565186313954137 -0.02143660863961419 0.01187273110527455
0.06022007371908044 -0.02346337568791652 0.01440334810895335
0.06467874528859135 -0.02543390669039036 0.01733257798681099
0.06885370804281256 -0.02729096769829101 0.02066890926360319
0.0725619847168493 -0.02897325643692111 0.02439934875355162
0.07564597010854651 -0.03041303839661149 0.02848598933793568
0.07803251241709971 -0.03152709301746696 0.03286653662082309
0.07983727885331104 -0.03219666371204059 0.03746185683667103
0.08157095062620164 -0.03223275034715296 0.04219817686609068
0.0846168707803984 -0.03133020426255662 0.04707061787437933
0.09253146462776231 -0.02904691965119919 0.05236712979328962
0.1153284008259257 -0.02496715603331576 0.0597348910766533
0.1888385494277323 -0.01957140982590451 0.08012512232740421
0.5406081773825763 -0.01744684004384607 0.2490109280555098
0.7818530516020856 -0.0506843173162729 -0.2406215464285511
0.3111453928186281 -0.07207967231966589 -0.02776361041302479
0.1842553033279633 -0.07667506602733883 -0.0004330976725492085
0.1249617251151312 -0.07389663166800675 0.007631913379826037
0.09000303562893182 -0.0678741729504061 0.01092636549952485
0.06691856327514627 -0.06076765631316789 0.01224242644191434
0.05071503167053421 -0.05365304940880582 0.01251149873566467
0.03893680153707828 -0.04701773100980573 0.01217073194560828
0.03020188954499208 -0.04104640896002571 0.011470602337264
0.02365469594058661 -0.03577518040681064 0.01056958151429482
0.01872649507046774 -0.03117102000218948 0.009572167463372245
0.0150185871441309 -0.02717199228112959 0.008548089481354392
0.01224048060494272 -0.02370737304939511 0.007543356812081659
0.01017473873730366 -0.02070747763058015 0.006587305623818477
0.008655605686424131 -0.01810816356964129 0.005697486494852766
0.007555212573177248 -0.0158525495097839 0.004883184258644001
0.006774197690999727 -0.01389131393884797 0.00414795823831754
0.006235048245147838 -0.01218227415465207 0.003491489146784968
0.005877215615864127 -0.01068965487959419 0.002910905333100012
0.00565344307266758 -0.009383254014253137 0.002401741630507432
0.005526954021394559 -0.008237614584822866 0.001958612941191864
0.005469269614229309 -0.007231273352837984 0.001575695261146714
0.005458496664254699 -0.006346092660121767 0.001247050683038924
0.005477973345607829 -0.005566687360348999 0.0009668551626711642
0.005515190581110894 -0.004879946266430375 0.000729540521160283
0.005560928589789954 -0.004274634172083958 0.0005298897768503792
0.005608562816109823 -0.00374106350215461 0.0003630847180507513
0.005653504788343982 -0.003270832876031365 0.0002247328918988973
0.00569275110538008 -0.002856613116001548 0.0001108678886022793
0.005724520024521593 -0.002491974114301493 1.79420077467094e-05
0.005747959066343239 -0.002171248397322707 -5.719537652999107e-05
0.005762910991334581 -0.001889420428265349 -0.0001173212438626955
0.005769727385242607 -0.001642035654358667 -0.0001648686107152366
0.005769121567767176 -0.001425130935709617 -0.0002019562386554868
0.00576205360759755 -0.00123517515883766 -0.0002304187525046024
0.005749641949674518 -0.001069020264376115 -0.0002518374367209228
0.005733096444530731 -0.0009238610837601776 -0.0002675667081024557
0.005713669192745518 -0.0007972017986604972 -0.0002787634999227225
0.0056926194036049 -0.0006868246854294559 -0.0002864081142558023
0.005671189978152419 -0.0005907671457014128 -0.0002913312479234321
0.005650593038447916 -0.0005072979953862146 -0.0002942284937403673
0.005632003037640507 -0.0004348990106523314 -0.0002956849273315243
0.005616555385159281 -0.0003722464906830633 -0.0002961832237964233
0.005605349935461909 -0.0003181985994495735 -0.0002961261693092163
0.005599457796800017 -0.0002717788993141219 -0.0002958387298896421
0.005599931314151502 -0.000232169209264576 -0.000295589009403962
0.005607816073321266 -0.000198697160406947 -0.0002955847462173016
0.005624165133669775 -0.0001708317737755941 -0.0002959932213164558
0.00565005461011255 -0.000148175041319638 -0.0002969326676146946
0.005686601065520254 -0.0001304628695106716 -0.0002984915109766251
0.005734980044750133 -0.0001175588356969853 -0.0003007151162305014
0.005796446376529151 -0.0001094609394975854 -0.0003036245705460013
0.005872355745153425 -0.0001063002757141212 -0.0003071990771845249
0.005964188269123909 -0.0001083516260693061 -0.0003113942851705955
0.006073573734676002 -0.0001160378187535113 -0.0003161205048618855
0.006202319306700248 -0.0001299473929370753 -0.0003212603524740361
0.006352439515122618 -0.0001508434151767893 -0.000326642791803113
0.006526189405111775 -0.0001796890247437004 -0.0003320595931291805
0.006726100821152032 -0.0002176640889651836 -0.0003372349698068622
0.006955022784894661 -0.0002661971021317674 -0.0003418400079607113
0.007216166142934158 -0.0003269909607104236 -0.0003454573252712645
0.007513153555422343 -0.0004020648743204672 -0.000347592129246094
0.007850075249929662 -0.0004937876666466921 -0.0003476307527175301