# OOMMF: rectangular mesh v1.0
# Segment count: 1
# Begin: Segment
# Begin: Header
# Title: 
# Desc: time = 0
# Desc: stepsize = 1e-13
# Desc: step = 0
# meshunit: m
# valueunit: (none)
# valuemultiplier: 218615.3712182742
# xmin: 0
# ymin: 0
# zmin: 0
# xmax: 4e-07
# ymax: 1e-07
# zmax: 4e-09
# ValueRangeMaxMag: 1
# ValueRangeMinMag: 0.003874634930897386
# meshtype: rectangular
# xbase: 2e-09
# ybase: 2e-09
# zbase: 1e-09
# xstepsize: 4e-09
# ystepsize: 4e-09
# zstepsize: 2e-09
# xnodes: 100
# ynodes: 25
# znodes: 2
# End: Header
# Begin: Data Text
0.8314602454813353 -0.5375528578194738 -0.1397725928985105
0.2492108505118454 -0.3675306730709868 0.06888379302279053
0.1169581671714281 -0.2954644952036678 0.08337903709247828
0.06276849670654282 -0.2496739034446054 0.07993621765307202
0.03476021983248221 -0.214155344760226 0.07302555241371556
0.01860586681618631 -0.1844592298964653 0.065402628271069
0.008780470352773351 -0.1589579225295855 0.05790372229571642
0.002687378788098499 -0.1368544272257527 0.05084081230518455
-0.001062111373074716 -0.1176385265925046 0.04433413152606951
-0.00328000002654937 -0.1009206319355191 0.03841993162165153
-0.004472240411575579 -0.0863768731134219 0.03309359648394791
-0.004969003825667063 -0.07372903313175404 0.02832976925943823
-0.004993226063821182 -0.06273564432158701 0.0240927996316212
-0.00469929902862811 -0.05318667373918301 0.02034252363008266
-0.004196159735745201 -0.04489942776006337 0.01703756014347929
-0.003561693968068628 -0.03771499102942392 0.01413719552090972
-0.002852049479886384 -0.03149504580471357 0.01160243665005755
-0.002107838017460167 -0.02611904321068018 0.009396563403672054
-0.001358370071508447 -0.02148172795297078 0.00748538126427998
-0.0006246104136229911 -0.01749100201434403 0.00583729359210567
7.87175041333917e-05 -0.01406609770421439 0.004423270328427797
0.0007416048817298758 -0.01113603413124456 0.003216756870051846
0.001357630021765066 -0.008638311186122972 0.002193553113335066
0.001923111080812779 -0.006517809536856858 0.001331677090182268
0.002436459043852251 -0.004725862907825703 0.0006112248371385542
0.002897676253242865 -0.003219472893291355 1.422974183039455e-05
0.003307962731091796 -0.001960638410030377 -0.0004754739136392783
0.003669403972876951 -0.0009157848439687357 -0.0008723837840409792
0.003984721710458794 -5.526863905575295e-05 -0.001189456356570968
0.004257074240110611 0.0006470536216393081 -0.0014382292985606
0.004489896558060771 0.001214202810507517 -0.001628937824388311
0.004686773100694494 0.001666411092387612 -0.001770626220676809
0.004851337480987902 0.00202142090821162 -0.001871253531341807
0.004987194739429186 0.002294749837700736 -0.001937793994711231
0.005097862671987588 0.002499930658721307 -0.001976331705200236
0.00518672913402992 0.00264872778831385 -0.001992149431919762
0.005257022840576267 0.002751332007547349 -0.001989811758090911
0.005311795451824523 0.002816536386558775 -0.001973241808073635
0.005353913084030575 0.002851896220902687 -0.001945792523142736
0.005386055586649556 0.00286387061414212 -0.001910311082080525
0.005410722272516899 0.002857950578591063 -0.001869198311563264
0.005430242815530293 0.002838773345248726 -0.001824460912983816
0.005446792406424721 0.002810222371440431 -0.001777759320740895
0.005462410309336261 0.002775515167742363 -0.0017304481774789
0.005479021224238679 0.002737280025705556 -0.001683613176057751
0.005498458926820342 0.002697619497207651 -0.001638100363451549
0.005522491941058295 0.002658163695009702 -0.001594542559729601
0.005552850938590074 0.002620113420348399 -0.001553378002543029
0.005591257869698257 0.0025842712412197 -0.001514866764644943
0.005639456805789986 0.002551062717204919 -0.001479099029380896
0.005699246669886498 0.002520547478348599 -0.001446001563809118
0.005772516035645382 0.00249241810307604 -0.001415335452667651
0.005861280393965399 0.002465988106498551 -0.00138669213739043
0.005967722193033347 0.002440168942674087 -0.001359479764894009
0.006094234204267779 0.002413432208297579 -0.001332907520767037
0.006243466730132043 0.002383758782559055 -0.001305958895886073
0.006418379295825506 0.002348572635037525 -0.001277362015873164
0.006622297470066594 0.002304656302545068 -0.001245546963462785
0.006858975597494046 0.002248047011822399 -0.001208598510774476
0.007132666122879699 0.002173912217502961 -0.00116419315052998
0.007448196313618354 0.002076397802123958 -0.001109528966037121
0.007811053093536058 0.001948449268969247 -0.00104123618971922
0.008227476595140028 0.001781600906253145 -0.0009552768476714062
0.008704562851523991 0.001565727865181263 -0.000846820350481235
0.009250375755740427 0.001288757517336438 -0.0007101030740094217
0.00987406783257477 0.0009363375025842885 -0.000538257840259923
0.0105860086652345 0.0004914511609225799 -0.0003231208853228932
0.01139791869861227 -6.601903410480911e-05 -5.500148798226659e-05
0.01232300441747507 -0.0007597846328046387 0.0002775785696430604
0.01337608865903105 -0.001617703035249191 0.0006881906373241191
0.01457372658843801 -0.002672385757285017 0.001192842510379299
0.01593429331474567 -0.003961854474170539 0.001810373050560793
0.01747802343596954 -0.005530239538419059 0.002562888549963857
0.01922697488137304 -0.007428494982222594 0.003476250042322442
0.02120487938100393 -0.009715101454281831 0.004580595672748087
0.02343682948459134 -0.01245671381868703 0.005910896514152293
0.02594873735073954 -0.01572869249097973 0.00750751515496558
0.02876648414151389 -0.0196154355518862 0.009416743088794545
0.03191466290814183 -0.0242104226667678 0.01169125685378843
0.03541480600003905 -0.02961584797284874 0.01439042885491091
0.03928298611816326 -0.03594171977827317 0.01758038427191045
0.04352669877227407 -0.04330430407684744 0.02133368195430108
0.04814098551316236 -0.05182380839778303 0.02572845248972454
0.05310385781700798 -0.06162124013949392 0.03084682242035591
0.05837124403155469 -0.0728144630253572 0.03677244339248205
0.06387190779486288 -0.08551353765104824 0.04358700402575237
0.06950305156519995 -0.0998155272533906 0.05136569736011619
0.07512755866313267 -0.11579896623931 0.06017181103318376
0.08057392498581099 -0.133518054624428 0.07005084752694082
0.08563974252256397 -0.1529962596838762 0.08102486407493061
0.09009901174325151 -0.1742180928125029 0.09308791189850878
0.09371265983607278 -0.1971160482142641 0.1062034555256491
0.09624096702035263 -0.2215459974362009 0.1203043333594683
0.09745779773916652 -0.2472360453569852 0.1352953231609178
0.09717461634739169 -0.2736725361385867 0.1510585830990818
0.09531620941053276 -0.2998234435602571 0.1674675249487884
0.09224224178325459 -0.3233728997089802 0.1844498308122456
0.09037984569946723 -0.3381171120677868 0.2024107890516819
0.1056674422899883 -0.3216706737383682 0.2266943461327092
0.3326512722547958 -0.1332406111788532 0.3582782255362296
0.8777416794948073 -0.1883757601660925 -0.2401018392990866
0.309390927533678 -0.1718242594031769 -0.006049947520181667
0.1560712033060034 -0.1430279023086319 0.01903472628026982
0.09139377669543536 -0.1197501607615351 0.02304601949148332
0.05760563048143992 -0.1014288847540335 0.02279573401724804
0.03764575350696519 -0.08652786426413238 0.02132068043518282
0.02496546762771473 -0.07410257161746982 0.01945289436203951
0.0165679254596579 -0.06359489240677424 0.01748701927680506
0.01089066961407075 -0.05464190683111998 0.01554944390045581
0.007033538372645528 -0.04698151819083713 0.01370193308246665
0.004436921986072543 -0.04040974093597782 0.01197618017247574
0.002732495671747449 -0.03476088088261586 0.01038749606779568
0.001667396369747613 -0.02989744892878409 0.008941315623219743
0.001062589600914857 -0.02570423837312548 0.007636836623027409
0.0007884442393812077 -0.02208428614404468 0.006469292928637869
0.0007495880549166442 -0.018955789446522 0.005431467620515825
0.0008750822445740723 -0.01624961226674448 0.004514722823586336
0.001111807787517037 -0.01390720489353858 0.003709709236516741
0.001419878102500622 -0.01187886220828448 0.003006847833681939
0.001769377180769529 -0.01012226592922449 0.002396657361781884
0.002137990684707261 -0.008601265943936306 0.00186996755301121
0.002509253573432291 -0.007284873841244123 0.001418058125004072
0.002871232258241199 -0.006146426859331056 0.001032739817851462
0.003215518618238324 -0.005162898790293534 0.0007064009930968988
0.003536451700638679 -0.00431433321790953 0.0004320242744843221
0.003830508419428087 -0.003583377001553519 0.0002031881496147193
0.004095821721046947 -0.002954893639368138 1.405257202593185e-05
0.004331796562173443 -0.00241564780427683 -0.0001406611788685324
0.004538802161570524 -0.001954041517570517 -0.0002656993591489215
0.004717924733376673 -0.001559894657297865 -0.0003653059649585535
0.004870768707833146 -0.001224262088403937 -0.0004432574273615114
0.004999297588252813 -0.0009392794661484964 -0.0005028966689822911
0.005105707289621401 -0.0006980306889423994 -0.0005471687993849855
0.005192326438148828 -0.0004944373891545738 -0.0005786554758302431
0.00526153906899051 -0.0003231618119677722 -0.0005996086949891054
0.005315726103284938 -0.0001795223976812035 -0.0006119833470199528
0.005357222324547783 -5.942075790371664e-05 -0.0006174673331672571
0.005388286393202043 4.072259881523497e-05 -0.0006175111124265262
0.005411081489385599 0.0001240264916317972 -0.0006133531542953797
0.005427664877657864 0.0001931980580358889 -0.0006060459084984295
0.005439984608581811 0.000250577789171523 -0.0005964761491251241
0.005449882207650639 0.0002981792755766386 -0.0005853872311433844
0.005459100033255361 0.0003377235827516337 -0.0005733942575718059
0.005469292614574708 0.0003706691076624529 -0.0005610027552539474
0.005482041027406659 0.0003982389208402079 -0.0005486188270864382
0.005498869977435239 0.0004214415699748241 -0.0005365645077656466
0.005521266965797558 0.0004410899490040648 -0.000525083155041618
0.00555070348072862 0.0004578161343192883 -0.0005143517508065893
0.005588657835134196 0.000472082143919886 -0.0005044817714663642
0.00563663982372509 0.0004841865526717906 -0.0004955286048582019
0.005696217019661695 0.0004942691457058641 -0.0004874880408595479
0.005769043053942892 0.0005023089499371996 -0.0004803028014188663
0.005856887876020497 0.0005081201113081966 -0.0004738546113077997
0.005961670465073715 0.0005113429580744887 -0.0004679675916719904
0.006085494137006884 0.000511429988530541 -0.0004623956186437084
0.006230685030263782 0.000507626153822278 -0.0004568220051787862
0.006399834042204201 0.0004989453816590416 -0.0004508415188626992
0.006595842873009915 0.0004841381226069942 -0.0004439553594691688
0.006821974562166649 0.0004616537765667892 -0.0004355467536669181
0.007081909203229268 0.0004295951473641131 -0.0004248696902784448
0.007379805279063024 0.0003856634654700453 -0.0004110164034799087
0.007720367267253034 0.000327093525239483 -0.0003928975925693242
0.00810891989645674 0.0002505799029206425 -0.0003691992695901553
0.008551489476558177 0.0001521892126512056 -0.0003383511856109735
0.009054892380828922 2.726138047435936e-05 -0.0002984693453615446
0.009626830499715158 -0.0001297014901018955 -0.0002473079677502302
0.01027599290426493 -0.0003251612229535877 -0.0001821823371625503
0.01101216218705582 -0.0005666819013204158 -9.989768993072358e-05
0.0118463227772242 -0.0008630784278697101 3.35516889284123e-06
0.01279076677934663 -0.001224575432618965 0.0001321032260035258
0.01385919059101861 -0.001662969398178569 0.000291733292053687
0.01506677185057737 -0.002191785320630194 0.0004886397484396835
0.01643021194909531 -0.002826422874771931 0.0007304174482611478
0.01796772240933972 -0.003584272303795987 0.001026068062593805
0.01969892510843117 -0.004484782312174141 0.00138625738899295
0.02164462454081654 -0.005549457204195627 0.001823591350976355
0.02382639645709884 -0.006801753474916724 0.002352941936277674
0.02626591963254916 -0.008266838902812698 0.002991784252169483
0.02898395920203979 -0.00997119016931159 0.003760559479168699
0.03199889190440119 -0.01194199101873438 0.004683004501190877
0.03532465301187963 -0.01420631800433403 0.005786426950569478
0.03896798963280837 -0.01679012015195874 0.007101822677893254
0.04292494200808115 -0.01971703537259118 0.008663753080758502
0.04717656081800736 -0.02300712324081356 0.01050981689011962
0.05168402868661522 -0.02667566387183738 0.01267957345468389
0.05638360045910871 -0.03073217241655203 0.01521273219490561
0.06118210723583502 -0.03517977069527076 0.01814651407233385
0.06595413855621482 -0.04001491353088825 0.02151217720337749
0.07054233690345718 -0.04522712575390304 0.02533094464209995
0.07476239809056311 -0.05079783237589743 0.02960982369696171
0.07841435543398595 -0.05669630530663057 0.0343381321077565
0.08130190418640304 -0.06286907913555252 0.0394857469301395
0.08326333026546563 -0.06921609415225624 0.04500425888036395
0.08422540171014258 -0.0755403104657108 0.05083264178034894
0.0843191084769262 -0.08144157691735071 0.05691177214583218
0.08419373512584799 -0.0860823412480643 0.06322603951569657
0.08605640315666999 -0.08762736514808973 0.06996465176496365
0.09788447004257439 -0.08180801631320782 0.07840582481686253
0.1558630471091488 -0.05869838746064795 0.09860828508972101
0.5165413388934934 -0.007223523825226799 0.2711884211968162
0.8535920617011726 -0.1032284101618111 -0.2462657450704741
0.3230512849670459 -0.1128900324901206 -0.01669070130335776
0.1747321804616708 -0.1038873745540702 0.01045405896419697
0.1081060947221732 -0.0909253544321583 0.01628570197780051
0.07172937679671225 -0.07847755737806297 0.01736016858858193
0.04954478324610255 -0.06752113921540731 0.01687997021535581
0.03504028543530602 -0.05809270994621519 0.01579196663253024
0.02513610899818913 -0.05002452631493249 0.01445521273961055
0.01819991790116153 -0.04312691707941514 0.01303404726418228
0.01328267947142902 -0.03722748815183116 0.01161502849853122
0.00978961339294681 -0.03217668224252669 0.01024756169118102
0.007325358594645444 -0.02784637574206345 0.008960321576503186
0.005615172567748022 -0.02412743360423917 0.007769108723323939
0.004461817961623145 -0.0209273138186378 0.00668126027601823
0.00372035900975701 -0.01816785604903774 0.00569844688404124
0.003282537425233473 -0.0157832510647597 0.004818567486636865
0.003066591081623121 -0.01371820766681477 0.004037080984218878
0.003010341436585484 -0.01192631221894049 0.003347943844816251
0.003066342330076707 -0.01036859309502854 0.002744276662841629
0.003198383718562073 -0.009012284785230784 0.002218825971726078
0.003378916713702711 -0.007829770896767735 0.001764288089091767
0.003587122704340528 -0.006797705930769595 0.001373523562745169
0.003807443082415133 -0.00589627671017102 0.001039703245873204
0.004028444679130752 -0.005108594103887845 0.0007563953591573209
0.004241934131324901 -0.004420193182128339 0.0005176204149792231
0.004442259714553531 -0.003818625356041675 0.0003178735761304724
0.004625756519362222 -0.003293122645686191 0.0001521332697614255
0.00479030274036258 -0.002834329464805413 1.585133228440844e-05
0.004934963500010357 -0.002434081172881575 -9.506151141147896e-05
0.005059704297873705 -0.002085224841022062 -0.0001842606148643451
0.005165160648756969 -0.001781473319983886 -0.0002549928077927301
0.005252453409744297 -0.001517286421147528 -0.0003101271517736272
0.005323041727724115 -0.001287770859909947 -0.0003521845171770755
0.005378606782965059 -0.001088600882936366 -0.0003833688249199417
0.005420961290685322 -0.0009159497008337127 -0.0004055970520480979
0.0054519801013505 -0.000766431848994527 -0.0004205278902831167
0.005473548463081703 -0.0006370548410813543 -0.0004295901296019365
0.005487524627904372 -0.0005251774487220782 -0.0004340070360897491
0.00549571448677126 -0.0004284722807927495 -0.0004348221367968049
0.005499855780021124 -0.0003448952321094699 -0.0004329185071377755
0.005501610371528236 -0.0002726576744172361 -0.0004290416516662222
0.005502562760430431 -0.0002102011137079405 -0.0004238134641813837
0.005504223910047161 -0.0001561767360244023 -0.0004177523025706136
0.005508039057719483 -0.00010942627041974 -0.0004112817273957969
0.005515399043700557 -6.896553804924047e-05 -0.0004047480767564629
0.005527654196374449 -3.397101107769509e-05 -0.0003984242659948189
0.005546130665823783 -3.769176763322894e-06 -0.0003925252167347868
0.005572148531638186 2.217408103770194e-05 -0.0003872070494447461
0.005607041833196176 4.425844208796226e-05 -0.0003825806641914949
0.005652180082255585 6.275444335392467e-05 -0.0003787066126667634
0.00570899159788454 7.780470283374886e-05 -0.0003756069980897512
0.005778988407591186 8.942344865760037e-05 -0.000373256207611703
0.005863793198066109 9.749137776959819e-05 -0.0003715911044972993
0.005965168215089937 0.0001017511996982675 -0.0003704976416228939
0.006085046696263769 0.0001017953372898071 -0.0003698190790232473
0.006225566880867137 9.705399916885255e-05 -0.0003693382791001759
0.006389109256632506 8.677679139551959e-05 -0.0003687833870338832
0.006578337215600413 7.001204357184979e-05 -0.000367805322360836
0.006796241833409585 4.557866503568688e-05 -0.0003659799764360688
0.00704619105872171 1.203750769942589e-05 -0.0003627800226843849
0.007331984044272297 -3.23483614293085e-05 -0.0003575721790636287
0.007657910990229598 -8.965488080828112e-05 -0.0003495818888744718
0.008028819179022356 -0.0001623475922824925 -0.00033788347565177
0.008450185551119467 -0.0002533366913542877 -0.000321355396458335
0.008928196289142007 -0.0003660418463745008 -0.0002986600293096246
0.009469833501246736 -0.0005044584542056462 -0.0002681858808999711
0.01008296888687176 -0.0006732355168468293 -0.0002280120743844061
0.01077646367622704 -0.0008777530844125688 -0.0001758318053006334
0.01156027330112089 -0.001124203960129519 -0.0001088939849731999
0.01244555403638612 -0.001419671348795459 -2.38990126405797e-05
0.01344476686479257 -0.001772201164360959 8.309390207338313e-05
0.01457177101329839 -0.002190853095379037 0.0002168122213184605
0.01584189547085407 -0.002685730913652654 0.0003829137821293266
0.0172719709638379 -0.003267966984978903 0.0005881925904799944
0.01888029625362304 -0.003949649054890629 0.0008407951375143244
0.02068650142937448 -0.004743664504256198 0.001150508311637755
0.02271125528616878 -0.005663439625162222 0.00152906774862706
0.02497574486288267 -0.006722539211917978 0.001990538169610104
0.02750083173112107 -0.0079341130648967 0.002551705458512564
0.03030576579901196 -0.009310159167896423 0.003232506210078056
0.03340631594237931 -0.0108606051341706 0.004056403321037886
0.03681217078299789 -0.01259222884651222 0.005050677012146837
0.0405234861232064 -0.01450748299274465 0.00624647406541732
0.04452653556741908 -0.01660331935731799 0.007678495075887747
0.04878858630239051 -0.01887020676436511 0.009384081453928501
0.05325240510374882 -0.02129152056563345 0.01140151959355515
0.05783121208461017 -0.02384350276296229 0.01376734814426506
0.06240542147214594 -0.0264958561918553 0.0165126407070229
0.06682306092808921 -0.02921270953574513 0.01965841759790432
0.07090624851201539 -0.03195314761782153 0.02321074375189262
0.07446654086167648 -0.03466953041673908 0.02715643080009983
0.07733286764766129 -0.03730047131173284 0.03146067804926282
0.07939905852989342 -0.0397532522629523 0.03606827620948418
0.08070938048037407 -0.04186700987690438 0.04091080736532191
0.08163714271471394 -0.04334170179402577 0.04592598223762162
0.08333057671706627 -0.04360743415458179 0.05111323234418575
0.08902710911010669 -0.04160516022008007 0.05674018504112186
0.108665737163819 -0.03556216166642261 0.06438528478901254
0.1799383205677828 -0.02370543806911462 0.08504826756835575
0.5411034919612813 -0.01048237743383554 0.2579086198881539
0.8194806092673258 -0.06863910862189902 -0.2442633965782881
0.3203523967641476 -0.08663624463425414 -0.02254324013641496
0.182506689244932 -0.0866254090886958 0.005027041794178197
0.1186059905660587 -0.07986243608426348 0.0121291455686906
0.08214026424317411 -0.07109281472026872 0.01433351821752869
0.05899253166355874 -0.06229786317599 0.01471210014562504
0.04333702153718627 -0.05420688528670895 0.01424967926805276
0.03232256015963067 -0.04702826337073801 0.01336372405551725
0.02438657775047427 -0.04076543164252078 0.01226698835212269
0.0185946994162709 -0.03534603472369949 0.01108176380281817
0.01434737386616471 -0.0306743010688325 0.009883129054136309
0.0112377575934603 -0.02665247785045025 0.008718151642311838
0.008977771525846816 -0.02318952404194494 0.007615826584927704
0.007356993220113411 -0.02020429698340181 0.006592964460247853
0.006218313277455061 -0.01762624784776587 0.005658022518715668
0.005442651282555246 -0.0153949620094058 0.004813748786501568
0.004938854595542242 -0.01345920482056108 0.004059046277271359
0.004636731309735845 -0.01177578217315386 0.003390309245959956
0.004482077969844311 -0.0103083966253482 0.002802369511137454
0.004433034756310097 -0.009026581148037642 0.002289173652670754
0.004457357001179499 -0.007904742001430005 0.001844251344447407
0.004530338319336823 -0.006921339109484477 0.001461046181928921
0.004633208009056713 -0.006058182884277836 0.001133133221077083
0.00475188039876265 -0.005299846679614343 0.0008543688673049668
0.004875969543315335 -0.00463318188874999 0.0006189784110693806
0.004998006956241449 -0.004046920133680871 0.0004216123539546578
0.005112816652506808 -0.003531345675026509 0.0002573675968815392
0.005217013715746683 -0.003078036128473359 0.0001217959326508391
0.005308600864307619 -0.002679649209471939 1.089242697728256e-05
0.005386643739718897 -0.0023297510507997 -7.891982581859728e-05
0.005451009702515534 -0.002022679246690807 -0.0001508161084226186
0.005502158674031312 -0.001753431952026161 -0.0002075961564264446
0.005540976428822936 -0.001517576548980398 -0.0002517154143205163
0.005568642970637502 -0.001311178209436886 -0.000285314917626778
0.005586529677575859 -0.001130739382111664 -0.0003102518334757761
0.005596120368841264 -0.0009731495242645304 -0.000328129362007489
0.005598951745188265 -0.0008356436683958938 -0.0003403234929358634
0.005596570018671686 -0.0007157673911815027 -0.0003480110645872405
0.005590500414407026 -0.0006113448264219891 -0.0003521912090955425
0.005582227465733266 -0.000520454090818322 -0.0003537108578078666
0.005573183662710477 -0.000441403416689012 -0.0003532802888109227
0.005564745176823304 -0.0003727110510130513 -0.0003514960407574258
0.00555823284930292 -0.0003130872606365012 -0.0003488505361976651
0.005554917779495232 -0.0002614198875366165 -0.0003457527173024454
0.005556030176596703 -0.0002167589214628521 -0.000342532026311954
0.005562771258960815 -0.0001783073565975357 -0.0003394572095654214
0.005576327227117308 -0.0001454103017225177 -0.0003367350556181397
0.005597885418756397 -0.0001175483291001463 -0.0003345277966308933
0.005628651937626116 -9.433108674587584e-05 -0.0003329470111236305
0.005669871100626322 -7.549573880490994e-05 -0.00033206993544233
0.005722846206075926 -6.09032069005809e-05 -0.0003319288739619781
0.005788962127065332 -5.05421438428056e-05 -0.0003325265629254398
0.005869709407067023 -4.453050997527315e-05 -0.0003338213091444265
0.005966710472753514 -4.31231783920506e-05 -0.0003357413366644515
0.006081747789450239 -4.671962614729903e-05 -0.000338165717667057
0.006216794657085417 -5.587848340579879e-05 -0.0003409373777495884
0.006374048618004549 -7.133015974976483e-05 -0.0003438396798808637
0.006555968233073289 -9.399929201298182e-05 -0.0003466074639250713
0.006765313348165734 -0.0001250257741430478 -0.0003488988623096295
0.007005189657542275 -0.0001657938138743483 -0.0003503033628979346
0.007279097840868461 -0.000217962811728946 -0.000350308034558061
0.007590988125533738 -0.0002835069821315782 -0.0003483010512450551
0.007945320699568071 -0.0003647547472187636 -0.0003435308785841629
0.008347132824377641 -0.0004644392334363943 -0.0003351028567164036
0.008802113166456177 -0.0005857486672766784 -0.0003219288585056579
0.009316684064582522 -0.0007323838812162888 -0.000302713158293127
0.009898092135689155 -0.0009086173725989773 -0.0002758883247393767
0.01055450745582966 -0.001119356352072955 -0.0002395842985937039
0.01129513099062848 -0.001370199779979411 -0.0001915433101654082
0.01213030902320332 -0.001667494337895904 -0.0001290622582129483
0.01307165204768022 -0.002018374750364749 -4.887459168621233e-05
0.01413215290347464 -0.002430784342745142 5.294991151170249e-05
0.01532629584046556 -0.002913464826245626 0.0001811755239237037
0.01667014219941728 -0.003475900494297187 0.0003415673977171849
0.01818137079559358 -0.004128195179077437 0.000541141886701848
0.0198792387787332 -0.004880865748170633 0.0007884312567494324
0.02178441331460633 -0.005744522473288855 0.001093844994784369
0.0239186019293686 -0.006729402862561718 0.001470058386631906
0.02630388317100572 -0.007844746208126125 0.001932494487346517
0.02896160720146806 -0.009097972400609436 0.00249981387861743
0.03191070630916636 -0.01049366052714939 0.003194436034868113
0.03516523468801492 -0.01203234417283248 0.004042955609670532
0.0387309673171812 -0.01370917784069613 0.005076390349263603
0.04260095402731279 -0.01551256900338919 0.006330026883282393
0.04675009173209185 -0.01742297705043827 0.007842680276872257
0.05112908434406218 -0.01941209078733047 0.009655045660100801
0.05565864655233747 -0.02144265850643383 0.01180693014327205
0.0602254676939483 -0.02346917279163258 0.01433318264327449
0.06468222861837224 -0.02543936703504416 0.01725847586810627
0.06885474640377226 -0.02729604553222049 0.02059143417431033
0.07256009447567068 -0.0289779591318577 0.02431918722846172
0.07564078487696765 -0.03041743635795796 0.0284038953013486
0.07802374698624619 -0.03153132521253205 0.03278334139020316
0.07982463601064343 -0.03220094331167652 0.03737862084196093
0.08155431696191559 -0.03223735323646732 0.04211620352032978
0.08459654716578308 -0.03133542912964817 0.04699095343619968
0.09250769033906939 -0.02905305911275079 0.05229005529467249
0.1153002147681892 -0.02497452118166086 0.05965983351230176
0.1888002533355018 -0.01958047419856403 0.080050625580966
0.5405247876985724 -0.01745913328010945 0.2489289797163397
0.7817401869773929 -0.05068940424785125 -0.2407333572276787
0.3110987416358388 -0.07209236654568321 -0.02792654925162713
0.184233332555193 -0.0766924075253471 -0.0005926053908570366
0.1249518463677938 -0.07391664950945774 0.007482311897008592
0.08999920858215422 -0.06789518946804314 0.01078726522524154
0.06691748053516107 -0.0607884022477991 0.0121138163820742
0.05071486310729573 -0.05367269597873946 0.01239375082873722
0.03893659275918618 -0.04703583488669651 0.01206404530056649
0.03020125118014155 -0.04106281312407015 0.01137439375792454
0.02365350588038705 -0.03578990126276473 0.01048282561088656
0.01872473180134044 -0.03118415971028834 0.009493894046602841
0.01501629455793884 -0.02718369078481541 0.008477472355230742
0.01223774024425248 -0.02371778207186574 0.007479664456795567
0.0101716414087885 -0.02071674636937947 0.006529881539971652
0.008652239022746705 -0.0181164298955906 0.005645751506727578
0.007551656856164806 -0.01585993713340106 0.004836624748196725
0.006770524074780421 -0.01389793081141862 0.004106120404587073
0.006231318240741283 -0.01218821390863909 0.003453965530575848
0.005873481492825607 -0.0106949972844835 0.00287733182437723
0.005649748563265161 -0.009388067510192111 0.002371786269049663
0.005523335192637782 -0.008241956985382156 0.001931975512623848
0.005465755681450002 -0.007235194396447515 0.001552098182436567
0.005455110812988406 -0.006349634423410207 0.001226240480154075
0.005474733429659252 -0.005569886504832392 0.0009485950672089016
0.005512109818974082 -0.004882834088875103 0.0007136129911359716
0.005558016133147391 -0.004277238483583442 0.0005160904928494462
0.005605824342754968 -0.00374340839911035 0.0003512254081298363
0.005650942963331029 -0.003272940258641992 0.0002146365663504989
0.005690366097050937 -0.002858502309699117 0.0001023713628410906
0.005722309873310349 -0.00249366304162262 1.089235104071588e-05
0.00574592013846279 -0.002172753182291933 -6.293910560120214e-05
0.005761038261017543 -0.001890756225141289 -0.0001218902585489035
0.005768014832568735 -0.001643216358855135 -0.0001683838339672421
0.005767562377152096 -0.001426169658165879 -0.000204529133591598
0.005760640514093381 -0.00123608415382763 -0.0002321522396061582
0.005748367358356839 -0.001069811023083939 -0.0002528251210781067
0.005731952730659243 -0.0009245445761814631 -0.0002678955172797324
0.00571264875015923 -0.0007977881529993225 -0.0002785111301444326
0.005691714905824826 -0.0006873238205653766 -0.0002856475767296243
0.005670394366868623 -0.0005911880027943709 -0.0002901263714330378
0.005649899753553308 -0.0005076496212498441 -0.0002926405205973241
0.005631405958526715 -0.0004351893102216652 -0.0002937659402982755
0.005616049037446058 -0.0003724838036121146 -0.0002939848898420582
0.005604929398033425 -0.0003183899509613983 -0.0002936909995503847
0.005599118891906055 -0.0002719320940699232 -0.0002932110278520436
0.005599670492314285 -0.000232290570554505 -0.0002928039197031585
0.00560763059193878 -0.0001987941470544036 -0.0002926814228327505
0.005624052930570625 -0.0001709102132032193 -0.000293001671026829
0.005650014474160379 -0.0001482422563650329 -0.0002938891124449926
0.005686632508050162 -0.0001305244283510149 -0.0002954230836560086
0.005735083464232213 -0.000117622157340386 -0.0002976573498305766
0.005796622935637447 -0.0001095316008547996 -0.0003006040536468846
0.00587260753041179 -0.0001063860476534425 -0.0003042529634274097
0.005964518180092226 -0.00010845839446959 -0.0003085510641274391
0.006073985638701479 -0.0001161739873209382 -0.0003134213855309574
0.006202817945695085 -0.0001301194897080851 -0.0003187383509137503
0.006353030655056898 -0.0001510607850720619 -0.0003243458062935951
0.006526879765109289 -0.0001799592039222421 -0.000330028050221387
0.006726898217040428 -0.0002179976996020379 -0.0003355263753219221
0.006955936084759656 -0.0002666030838009062 -0.0003405054277850641
0.007217205403704899 -0.0003274815715453565 -0.0003445671652076622
0.00751433000829487 -0.0004026508701480151 -0.0003472117534401953
0.00785140142809676 -0.0004944833066258614 -0.0003478472151515982