# OOMMF: rectangular mesh v1.0
# Segment count: 1
# Begin: Segment
# Begin: Header
# Title: 
# Desc: time = 2.20178574241811e-10
# Desc: stepsize = 3.0691291343783305e-13
# Desc: step = 500
# meshunit: m
# valueunit: (none)
# valuemultiplier: 218606.1944699753
# xmin: 0
# ymin: 0
# zmin: 0
# xmax: 4e-07
# ymax: 1e-07
# zmax: 4e-09
# ValueRangeMaxMag: 1
# ValueRangeMinMag: 0.003866908379038605
# meshtype: rectangular
# xbase: 2e-09
# ybase: 2e-09
# zbase: 1e-09
# xstepsize: 4e-09
# ystepsize: 4e-09
# zstepsize: 2e-09
# xnodes: 100
# ynodes: 25
# znodes: 2
# End: Header
# Begin: Data Text
0.8315128833048372 -0.5375499281762717 -0.1400082254981375
0.2492111582438784 -0.3675151101144375 0.06864120170333343
0.1169506576101111 -0.2954457215051898 0.08315940426001778
0.06275937947914899 -0.2496526725048209 0.07974112154720123
0.03475116340817148 -0.2141315951239066 0.07285216875911683
0.01859743058670566 -0.1844330335959064 0.06524775389798605
0.008772857646977621 -0.1589295226621371 0.05776441067501253
0.002680678852216865 -0.1368241281206319 0.05071456251843245
-0.001067875295633027 -0.1176066214166618 0.0442189002921047
-0.003284843160572257 -0.1008874044107338 0.03831392526922415
-0.004476181837793652 -0.08634261086220454 0.03299541671518309
-0.004972080118425339 -0.07369405689850962 0.02823848171352653
-0.004995496414972728 -0.06270033629279553 0.02400773146213531
-0.004700835652111423 -0.05315143205260976 0.02026324866719268
-0.004197064768209942 -0.04486459629341015 0.01696383157001726
-0.003562103396500993 -0.03768082095917093 0.01406873054746495
-0.002852102904651436 -0.03146164356487402 0.01153891131960983
-0.00210764353887112 -0.02608637465115831 0.009337646555786521
-0.001357982277527968 -0.02144969467897788 0.007430754483978614
-0.0006240267127055817 -0.0174595007877457 0.005786624801110353
7.955600704787594e-05 -0.01403506013963069 0.004376173195979762
0.0007427711173750748 -0.01110545583044113 0.003172909264572108
0.001359154051956954 -0.008608242827169332 0.002152644965580762
0.001924983907899732 -0.006488342065782911 0.001293414750130189
0.0024386485251728 -0.004697115635730772 0.0005755841468497773
0.002900131113827073 -0.003191605617383158 -1.854220268643902e-05
0.00331064045522524 -0.001933862223535331 -0.0005050271363875672
0.003672279858167817 -0.0008903149806130926 -0.0008982728510887807
0.003987774048061219 -3.128479576426075e-05 -0.00121129771176164
0.004260273240019931 0.0006694329623008652 -0.001455770833509997
0.004493212265191282 0.001234933713200618 -0.001642118561742093
0.004690216438852849 0.001685499078287364 -0.001779575076751147
0.004854968284189343 0.002038883092616016 -0.001876162597631107
0.004991100328372098 0.002310588998486836 -0.001939028650907594
0.005102130503679814 0.002514131592593968 -0.001974457400654086
0.005191412882818114 0.002661283559159785 -0.001987860456854844
0.005262140047029652 0.002762234471980639 -0.001983833643204932
0.005317336269517608 0.002825744480435814 -0.001966190419640577
0.005359846723511536 0.002859318643828056 -0.001938134275418135
0.005392328704056461 0.002869359940538069 -0.001902387129333817
0.00541723380463248 0.002861353456176014 -0.001861230964140082
0.005436833575648533 0.002839966918438921 -0.001816595905234883
0.005453267280365288 0.002809130074853707 -0.001770001370609416
0.005468568677302237 0.00277211320539824 -0.001722657279336696
0.005484679718815872 0.002731602129187819 -0.001675617900759608
0.005503441659771879 0.002689789304632923 -0.001629734657004222
0.00552661515642575 0.002648410778881824 -0.001585737038280008
0.005555942178385368 0.002608792796781132 -0.001544090787294876
0.005593198050184615 0.002571838691282519 -0.001505088970430157
0.005640197813262141 0.002538022539287558 -0.001468915821005922
0.005698769237062078 0.002507433889754357 -0.001435550876290609
0.005770815158061066 0.002479788725147341 -0.001404819449008126
0.005858405894193178 0.002454409127435312 -0.001376262176035688
0.005963795727106145 0.002430148265450593 -0.001349288041541404
0.006089418921556539 0.002405377522130788 -0.001323095613530947
0.006237929154429993 0.002377973493125055 -0.001296592195552343
0.006412298229493065 0.002345255551031856 -0.001268462005019585
0.006615879512521337 0.002303912015494533 -0.00123707234801648
0.006852441804396064 0.002249881444863807 -0.001200579827477227
0.007126225304015311 0.002178247026255914 -0.001156739550460228
0.007442012103869828 0.002083077324817716 -0.001102793005872875
0.007805239132483277 0.00195727304499821 -0.001035433365213936
0.008222109605077502 0.00179237786531106 -0.0009506859331935754
0.00869968663673816 0.001578290606184657 -0.0008438875254194348
0.009246001017982454 0.00130297164055114 -0.0007094088923706792
0.009870155716074264 0.0009520892264363261 -0.0005404041608540977
0.01058246273911477 0.0005086572954176946 -0.0003286727600049678
0.01139461112181339 -4.738706563312307e-05 -6.44259838964327e-05
0.01231981598924167 -0.0007397003805648418 0.0002638756439429487
0.01337294439557708 -0.001596090097402527 0.000669874683977781
0.0145705841250773 -0.002649153696524308 0.001169761739242204
0.01593112698340167 -0.003936942386953786 0.00178244608298211
0.0174748369988801 -0.005503640376681149 0.002530158575347013
0.01922379686569647 -0.007400249637097585 0.003438930800644746
0.02120176743941432 -0.009685254680356888 0.004538930461345564
0.02343387293398917 -0.01242530090760941 0.005865004086535817
0.02594605040443193 -0.01569576907735725 0.007457190825985464
0.02876418035072244 -0.01958106246727168 0.009361632355562014
0.03191279851854643 -0.0241746534593294 0.01163094964554631
0.03541339258119455 -0.02957872102946875 0.01432432109182397
0.03928204965369207 -0.03590323825454598 0.01750786597814222
0.04352629307906215 -0.04326443695778275 0.02125427015405397
0.04814123116812967 -0.05178251466186976 0.02564166614552095
0.05310496769060771 -0.06157855253446404 0.03075230881360985
0.05837347398256831 -0.07277056494887538 0.03667014786508693
0.06387551727456012 -0.08546877353747546 0.04347725098838791
0.06950826868262559 -0.09977041297862227 0.05124917005125511
0.07513455082101736 -0.1157541547923058 0.06004947387739727
0.08058279615637973 -0.1334742335324515 0.06992395336331246
0.08565050651120761 -0.1529541150232961 0.08089470705362806
0.09011158484959673 -0.1741782897172591 0.09295568901671622
0.09372684953721791 -0.1970791836892943 0.1060704704141613
0.09625643308539472 -0.2215126091690998 0.1201718604966905
0.09747408826228839 -0.2472066112701608 0.1351644707710385
0.09719121984795867 -0.2736474010543603 0.1509304857195308
0.0953325810702004 -0.2998027464560751 0.1673429818398098
0.09225790663678593 -0.3233564521593745 0.1843289629123709
0.09039450718366848 -0.3381041269626917 0.2022934245208972
0.1056812753184678 -0.3216590831179476 0.2265815368628898
0.3326674678761148 -0.1332236285970058 0.3581895934588418
0.8778042048674188 -0.1883855935012999 -0.2403772810442455
0.3093957989562522 -0.171830187091154 -0.006336306589789972
0.1560666850523566 -0.1430305506046207 0.01877497775630298
0.09138728734680332 -0.1197501442352087 0.02281589026481179
0.05759897657467043 -0.1014265735689515 0.0225923205467663
0.03763944252852217 -0.08652356912702935 0.02114034109055637
0.02495966822998589 -0.07409659419767868 0.01929215712406938
0.01656273930102745 -0.06358751669744378 0.01734286154919059
0.01088615105927007 -0.05463338445791852 0.01541935016229878
0.007029695140347664 -0.04697206797106935 0.01358367998146138
0.004433741465202932 -0.04039955874557604 0.01186798983215436
0.002729930070660545 -0.03475015141534459 0.01028811411540001
0.001665376198790566 -0.02988635219868366 0.008849794204640384
0.001061060121968253 -0.02569294447787197 0.007552510899267438
0.0007873527074688688 -0.02207294074889779 0.006391718938578291
0.0007488733251466918 -0.01894449820167816 0.005360209628224013
0.0008746891950271648 -0.01623843131554837 0.004449345980702842
0.001111690517608581 -0.01389614632255891 0.003649802281215314
0.001420006177362154 -0.01186791154782159 0.002952040026090649
0.001769744996587726 -0.01011140125216798 0.002346570306732282
0.002138627993291922 -0.008590474344076126 0.00182414424497528
0.002510200090373731 -0.007274159957270922 0.001376083350012327
0.002872492304568822 -0.006135810327460566 0.0009942002137004536
0.003217064703087824 -0.005152410188029109 0.0006709033878992902
0.003538233241473997 -0.004304013883785878 0.000399476424052337
0.00383245068835556 -0.00357328103182047 0.0001738124070227801
0.004097866936471442 -0.002945087197366148 -1.179073100707279e-05
0.004333925981493324 -0.002406201304472264 -0.00016249976288067
0.00454101956925062 -0.001945018636122299 -0.0002831254111341895
0.00472023749626319 -0.001551343725688393 -0.0003780524140741759
0.004873179712004418 -0.001216213171536974 -0.0004512645202505525
0.005001832702198114 -0.0009317500810545618 -0.0005063158379608571
0.005108423019105805 -0.0006910360105114833 -0.0005462393046996371
0.005195299614362028 -0.0004879964702697129 -0.0005738334522318407
0.005264854023651484 -0.0003172960876266512 -0.0005915941935307706
0.005319438637317624 -0.0001742513612377189 -0.0006016397507522844
0.005361342660545532 -5.476275731413951e-05 -0.000605700209222008
0.005392783352265663 4.474342778931838e-05 -0.0006051053322634159
0.005415895809872943 0.000127373551061327 -0.000600930247048036
0.005432726818305242 0.0001958225930383677 -0.0005940822414663263
0.005445201338627064 0.0002524288921045041 -0.0005853084825606423
0.005455119108429712 0.0002992158509735843 -0.0005752423770053738
0.005464192767088921 0.0003379205931576876 -0.0005643109569911383
0.005474074420903147 0.0003700204589472544 -0.0005528232583420404
0.005486372655160802 0.0003967612116980055 -0.0005411156241787257
0.005502633750220057 0.0004191825503818914 -0.0005294851613257296
0.005524348510812177 0.0004381369967056 -0.0005182465391680968
0.005552997720344769 0.0004542994276930541 -0.0005075649927514533
0.005590090220521384 0.000468166486383611 -0.0004975560108525918
0.005637185496173558 0.0004800583608215274 -0.0004883620490849777
0.00569587256467467 0.0004901281838081472 -0.0004800351217302487
0.005767812178909264 0.0004983627635754548 -0.0004725747733049945
0.005854804433037969 0.0005045721890061723 -0.000465807626310546
0.005958808555805445 0.0005083760821232844 -0.0004595771612994035
0.006081955830988262 0.0005091931108203162 -0.0004536682994124318
0.006226574487822616 0.0005062304129254433 -0.0004477144352117657
0.006395269497515515 0.0004984626478469902 -0.0004412955811724521
0.006590971880956516 0.0004846021471301545 -0.0004338806495561916
0.006816962487171149 0.0004630622223516389 -0.0004249775354057016
0.00707691620721445 0.000431914581668864 -0.0004139723357585138
0.007374958885749957 0.0003888361630285599 -0.0004000439550364687
0.007715768770402947 0.000331047722178173 -0.0003821911253979477
0.008104653460243904 0.0002552409589659662 -0.0003591863517677463
0.008547613463783434 0.0001574876942285213 -0.0003296476831340537
0.009051432132653249 3.313542265520704e-05 -0.0002918519419028008
0.009623762427885424 -0.0001233048515781376 -0.0002435692598019659
0.01027324498283663 -0.0003182834865880067 -0.0001820599661576005
0.01100963956874337 -0.0005593483427327773 -0.0001039848567811583
0.0118439381676867 -0.0008552964755120842 -5.425035364528905e-06
0.01278846451522266 -0.001216338506154909 0.0001182555751894825
0.01385692580661282 -0.001654265485047759 0.000272656603627875
0.01506449810159815 -0.002182606094920924 0.0004642632359512217
0.01642790799471302 -0.002816770423910621 0.0007008125300243342
0.01796540213336096 -0.003574159027957759 0.0009915027634031549
0.01969664336381535 -0.004474226888306214 0.001347015370216168
0.02164246517653133 -0.005538481858267214 0.001779800184256889
0.02382446362252706 -0.006790386011975375 0.002304352373716867
0.02626432160461166 -0.0082551148539206 0.00293794503425769
0.02898275397469513 -0.009959149328637057 0.00370092670930524
0.03199810343476214 -0.01192967109896265 0.004616830041967303
0.03532432624857842 -0.0141937513950323 0.005712974603621891
0.03896818831105322 -0.01677733573851394 0.007020506162802294
0.0429257693692219 -0.01970406658041358 0.008573971310499254
0.04717817541277872 -0.02299402187386985 0.01041109887993556
0.05168660777875707 -0.02666251296955484 0.01257176066962086
0.05638732031875842 -0.03071909217779663 0.01509604717711502
0.06118712513298254 -0.0351669138848326 0.01802155160977449
0.06596058612778724 -0.04000245099192822 0.02137984768003817
0.07055031897020007 -0.04521522701816218 0.02519247026647755
0.07477194681293028 -0.05078665045926569 0.02946648353308986
0.07842541846778811 -0.05668596975441991 0.03419111740138851
0.08131432681263077 -0.06285969436873243 0.03933637902468234
0.0832768067768086 -0.06920773927159267 0.04485386474628882
0.08423952999193667 -0.07553303828258841 0.05068240822888118
0.084333468482279 -0.08143539980557091 0.05676292310035252
0.08420794099371071 -0.08607718998708598 0.06307944840303029
0.08607027428778112 -0.08762301203036786 0.06982046533599712
0.0978982980610178 -0.08180392872092224 0.07826390711422929
0.1558783533432877 -0.05869344849688791 0.09847035112605228
0.5165637514609471 -0.00721586884052082 0.271079922886462
0.853657612977631 -0.1032361068709608 -0.2465464953923815
0.3230592690429323 -0.1128948358832079 -0.01698436376204675
0.1747303031099819 -0.1038896233601467 0.01018515622911961
0.1081018452167814 -0.09092542015466976 0.01604551218276251
0.07172462749538741 -0.07847579035920617 0.01714643928017264
0.0495400692531753 -0.06751785352989206 0.01668949763794491
0.03503579787328667 -0.05808818826721458 0.01562155749854633
0.02513198167653068 -0.05001901798990154 0.01430200232086177
0.01819624259539401 -0.04312063332077479 0.01289560161111695
0.01327949498368386 -0.0372206052277826 0.01148914771587397
0.009786928434227668 -0.03216934967545604 0.0101324476350698
0.007323138949355866 -0.02783872309850915 0.008854686706474111
0.00561335861007546 -0.02411957688102991 0.007671967566046665
0.00446036982384965 -0.0209193573799328 0.006591907692084383
0.003719249744691569 -0.01815988775634976 0.00561639980061565
0.003281740372905228 -0.01577533611031967 0.004743356280074068
0.003066086818255197 -0.01371038526363683 0.00396823989567604
0.003010111430255379 -0.01191859748026932 0.003285026707304483
0.003066370388332951 -0.01036098466819967 0.00268686942222312
0.003198665429709159 -0.009004773324002917 0.002166516055517655
0.003379472833121471 -0.007822347792717965 0.001716586094379356
0.003587981744863817 -0.006790368872879437 0.001329973338872988
0.003808601249121403 -0.005889028839466031 0.0009998558849607507
0.004029866576898885 -0.005101443184902883 0.0007198328697375465
0.00424355915694388 -0.004413154986401306 0.0004842221981374105
0.00444400241415264 -0.003811725781365643 0.0002878419798474241
0.004627551059610038 -0.003286397568958011 0.0001258246660331867
0.004792128922367314 -0.002827821331510698 -6.250366922993157e-06
0.00493683139600005 -0.002427833264532618 -0.0001125361563822963
0.005061633301379147 -0.00207927484382879 -0.0001968419310347497
0.005167166125533834 -0.001775849333714981 -0.0002626318580819347
0.005254567814285543 -0.00151200757558735 -0.0003129894734368035
0.005325321240741933 -0.001282852596089478 -0.000350532644720936
0.005381125997020553 -0.001084058818874178 -0.0003776873835365034
0.005423804769646083 -0.0009117993423038341 -0.0003966187031905903
0.005455205721849743 -0.0007626863593162009 -0.0004091550960899469
0.005477165659108971 -0.0006337253269186534 -0.0004167702349037418
0.005491496092697917 -0.0005222766057578003 -0.0004205691945358006
0.00549997173583797 -0.0004260181066330058 -0.0004214243546260149
0.005504323217538835 -0.0003429124111897317 -0.0004200636160142501
0.005506198042247593 -0.0002711727861258019 -0.0004170827837713027
0.005507146555091221 -0.0002092359938418369 -0.0004129922891302326
0.005508653629112922 -0.0001557435111818325 -0.0004081197201587944
0.005512164345048889 -0.0001095252229904967 -0.000402688179291796
0.005519101309512968 -6.958260216457298e-05 -0.0003969648231715493
0.005530842838620283 -3.507360953080094e-05 -0.0003911939591490897
0.005548723040446634 -5.301086989158402e-06 -0.0003856538455951413
0.005574069844581331 2.029425966900726e-05 -0.0003804875334004524
0.005608239392309294 4.213426280774363e-05 -0.0003757995812949407
0.005652642196328717 6.050342454634688e-05 -0.0003717354230463544
0.005708722461774686 7.555311999563601e-05 -0.0003683605176167084
0.005777992886373188 8.730063649294171e-05 -0.0003657049010056663
0.005862095653675554 9.562366308939528e-05 -0.0003636459591952255
0.005962821762856997 0.0001002521120066185 -0.0003621007578158625
0.006082125718400009 0.0001007586669419274 -0.0003609502405063702
0.0062221456814349 9.654976917400006e-05 -0.0003599387670662273
0.006385275910714388 8.685088432361702e-05 -0.0003587817724207608
0.006574210432394566 7.068599279347348e-05 -0.0003571110997032439
0.006791960902663589 4.685231913305915e-05 -0.0003546318844134797
0.007041894790121665 1.389159741981812e-05 -0.0003509672317558104
0.007327784848173178 -2.99465866957311e-05 -0.000345570707821175
0.007653903061423724 -8.674738347705664e-05 -0.0003377666345967927
0.008025087410389015 -0.0001589782772964079 -0.0003267131756495947
0.008446793291624649 -0.000249547276170808 -0.0003114905983844823
0.008925175369939822 -0.0003618689865201522 -0.0002909256407376895
0.009467168060691838 -0.0004999333783034711 -0.0002634299783971662
0.01008059701986064 -0.0006683822826550212 -0.0002270158091232857
0.01077430286588983 -0.0008725878204550975 -0.0001792232439021557
0.01155824731215752 -0.001118734428788406 -0.0001171716494562599
0.01244361356233179 -0.001413900475875095 -3.745713072889483e-05
0.0134428676757863 -0.001766129905055658 6.408332608599946e-05
0.01456986205068086 -0.002184483766691849 0.0001922737491831943
0.01583994829378645 -0.002679069372773122 0.0003529297670663369
0.01726999317723521 -0.003261023846593077 0.0005530393319007555
0.01887833938313547 -0.003942437967611418 0.0008007643174301562
0.02068464698478533 -0.004736200172140569 0.001105730851018001
0.02270960215889413 -0.005655738372361874 0.001479299141689549
0.02497439495498869 -0.00671462272485759 0.00193530022731598
0.02749984047440336 -0.007926007589932988 0.002490415787289352
0.03030515788347064 -0.009301893246869145 0.003164380621462571
0.03340613695430568 -0.01085220970110761 0.003980676642690572
0.03681248148933872 -0.01258373925849304 0.004966717753285835
0.04052438063976467 -0.01449894234717314 0.006153626616083179
0.04452815623115126 -0.01659478266203439 0.007576233621654346
0.04879108898177236 -0.01886174261216614 0.009272207157481316
0.05325594612677591 -0.02128320930199799 0.01128021740605691
0.05783593758598315 -0.02383543087206788 0.01363719668491223
0.06241146370815227 -0.02648810888464708 0.01637455890025223
0.06683053844003452 -0.0292053610396692 0.01951365676715462
0.07091521551907022 -0.03194625130298532 0.02306063397526294
0.07447696722898059 -0.03466311746638572 0.0270022342856389
0.07734461966511727 -0.03729455365969104 0.03130379142358547
0.07941185070339643 -0.03974782081838209 0.03591012638997942
0.08072283330760999 -0.0418620334487189 0.04075269349729336
0.08165087921593801 -0.04333712242588925 0.04576921558371892
0.08334429869048134 -0.04360314086936463 0.05095874498851915
0.08904080105289576 -0.04160094133819786 0.05658814306086744
0.1086799895658429 -0.0355576365998691 0.06423553411754948
0.179955106155303 -0.02369997335491729 0.08490272958095417
0.5411289695730809 -0.01047495318795036 0.2577942928984065
0.8195497670596523 -0.06864436307235856 -0.2445455127175328
0.3203630146866858 -0.08663840923412135 -0.02283950408733708
0.1825070577964526 -0.08662525600869894 0.004753006160846135
0.1186036269260223 -0.07986036461564136 0.01188185657419258
0.0821370606507906 -0.07108917941101735 0.01411145375054784
0.05898905518542269 -0.06229298775225505 0.01451269092756374
0.04333350053507741 -0.05420105489423736 0.01407021538944743
0.0323191699807086 -0.04702171979134188 0.01320167238158876
0.02438345201621193 -0.04075837119200103 0.01212012830974595
0.01859191154739211 -0.03533861379357522 0.01094801099634677
0.01434495891026533 -0.03066664485976303 0.009760728803510111
0.01123570100987249 -0.02664468725650675 0.008605825261623984
0.008976027078839993 -0.02318168351438259 0.007512586883382903
0.00735553338252443 -0.02019648011609229 0.006498095506994946
0.006217127684202388 -0.01761851570849209 0.00557102606865754
0.005441733612865311 -0.01538736086677389 0.004734132354628368
0.00493820670614287 -0.01345176471036045 0.003986317831994285
0.004636352562945453 -0.01176851647077838 0.003323984342341381
0.004481963726309436 -0.01030130498461584 0.002741986969993658
0.004433185061197067 -0.009019655090644566 0.002234278597336921
0.004457790372094601 -0.007897970109360249 0.00179431965426878
0.004531078773131227 -0.006914711638448623 0.001415579787515853
0.004634248227562794 -0.006051692200916024 0.001091652318932178
0.004753179433495296 -0.005293488587860587 0.0008164329518204665
0.004877457904642222 -0.004626959353394332 0.0005844405625730011
0.004999589311007769 -0.004040846058695126 0.0003906476932162641
0.005114418674932698 -0.003525442778935169 0.0002303200995240334
0.005218610397659496 -0.003072335701400618 9.915215856450177e-05
0.005310203055282746 -0.002674186542071485 -6.92073493676958e-06
0.005388277436380115 -0.002324558894741668 -9.16441778745717e-05
0.005452699755198145 -0.002017782054658603 -0.0001584185416029161
0.005503944415761127 -0.001748844803663129 -0.0002102611721292008
0.005542916193930489 -0.001513308644840023 -0.0002497297771485065
0.005570811028477935 -0.001307237293943452 -0.000279187269528462
0.005589011029095006 -0.001127133574837762 -0.0003007384245319684
0.005598974460764452 -0.0009698862951005126 -0.0003161563142950794
0.005602188095060838 -0.0008327298889549518 -0.0003268649105094834
0.005600148384131964 -0.0007132111990851218 -0.0003339259016269696
0.005594347015397809 -0.0006091580132756386 -0.0003381627646060659
0.005586262245456152 -0.0005186537984492378 -0.000340255333374299
0.005577317570283065 -0.0004400097852682884 -0.0003407579777827257
0.005568860749610664 -0.000371741280726787 -0.0003401522901003646
0.005562190254593323 -0.0003125506722104097 -0.0003387487115180204
0.005558578913470207 -0.0002613141737274311 -0.0003367514281095602
0.005559291055390557 -0.0002170693425307063 -0.0003344113758185489
0.005565559296420545 -0.0001790039186571871 -0.0003319598754756928
0.005578580657256731 -0.0001464461483780286 -0.0003296680261553834
0.005599550030997679 -0.0001188570694470045 -0.0003276787517843772
0.005629690685265791 -9.582934429356818e-05 -0.0003260975377628436
0.005670281300436633 -7.708858150481159e-05 -0.0003250743554453972
0.005722636253197555 -6.249094309103867e-05 -0.000324680826070336
0.005788136583210483 -5.202321417283304e-05 -0.0003249631124955262
0.005868286175551433 -4.58065179547304e-05 -0.0003258271483245329
0.005964728841780037 -4.410426843989889e-05 -0.0003272291721774332
0.006079263561057618 -4.733186479053805e-05 -0.0003291008846400272
0.006213861787399034 -5.606503157693975e-05 -0.0003312424095149044
0.00637073449867832 -7.105322733190884e-05 -0.0003334382331462335
0.0065523716357272 -9.323880292264816e-05 -0.0003354019779880283
0.006761555627771074 -0.0001237799147311652 -0.0003369366473326919
0.007001395273496929 -0.0001640752696076322 -0.0003377839868593676
0.00727536912593742 -0.0002157959315856776 -0.0003375312881410817
0.007587414145697729 -0.0002809223942941987 -0.0003356604844756846
0.007941986470746941 -0.0003617854108835192 -0.0003315138424276444
0.008344104964357175 -0.0004611156490140819 -0.0003243939787831262
0.008799428355525682 -0.0005820980724920036 -0.0003133950501478338
0.009314332218126048 -0.0007284276180828389 -0.0002972384068738899
0.009896018001693169 -0.0009043712327519654 -0.0002742968992503319
0.01055263547463358 -0.001114828817488233 -0.0002425268249563634
0.01129338985801504 -0.00136539461192678 -0.0001995387046544002
0.01212865128835378 -0.001662413005953463 -0.0001425171272882215
0.01307003320836881 -0.002013019816444893 -6.798102178367436e-05
0.0141305198890873 -0.002425159285589243 2.811604917134585e-05
0.01532461665510097 -0.002907575428569809 0.0001506965138063182
0.01666842085545522 -0.003469754726829534 0.0003057306439043764
0.01817965719121267 -0.004121803312224526 0.0005002392554866223
0.01987761431133299 -0.004874237698522795 0.000742607539882213
0.02178297420920593 -0.005737668560881919 0.001042862926455772
0.02391744559239103 -0.006722336232155 0.001413428813980221
0.02630306201378649 -0.007837483502971625 0.001869602397580997
0.02896114277835778 -0.009090533325946682 0.002429853789375113
0.03191063877975939 -0.01048607037421784 0.003116608337366513
0.03516561747278893 -0.0120246359488108 0.003956583433407668
0.03873188525853564 -0.01370139454905589 0.004980759386709927
0.04260253912130018 -0.01550476546758321 0.006224559910980514
0.04675249044309775 -0.01741521890265766 0.007727122042339236
0.05113244896330255 -0.01940444854131875 0.009529529935457156
0.05566312638225891 -0.02143519967036188 0.01167200461746944
0.06023120416287533 -0.02346195729979013 0.01418976269011274
0.06468935757100229 -0.02543244206290051 0.01710781160708072
0.06886334547193625 -0.02728943691374319 0.02043488564300822
0.07257015447104119 -0.02897166991332595 0.02415807549081714
0.07565219107692839 -0.03041145083498032 0.02823968373587308
0.07803623261054436 -0.03152560714462634 0.03261754601743552
0.07983783874680496 -0.03219543463857136 0.03721266185406044
0.08156788785898049 -0.03223197452434181 0.04195150015369373
0.08461024356603034 -0.03133006695940614 0.04682852516604797
0.09252159206464587 -0.02904753963942559 0.05213012057307181
0.1153150661180749 -0.02496857382278859 0.05950225504062181
0.1888182593228464 -0.01957367249207899 0.07989750176134465
0.5405528337578545 -0.01745067510363026 0.2488088835841928
0.7818136293786703 -0.05069274519782704 -0.2410161788926174
0.3111119585957841 -0.0720924529641125 -0.02822457406220096
0.1842358010555657 -0.07669021890832395 -0.0008710963323331788
0.1249512098902307 -0.0739126241697048 0.007228232647891537
0.08999737901286341 -0.06788969626320771 0.01055678511626293
0.06691505367780788 -0.06078178424684708 0.01190506448305376
0.05071211061534529 -0.05366525804590817 0.01220459162305912
0.03893373977877282 -0.04702783242734856 0.01189236760180745
0.03019848023688098 -0.04105444900340764 0.01121825798680711
0.02365093171426163 -0.03578133071630219 0.01034031648395945
0.01872242110905455 -0.03117549994474939 0.009363338345883696
0.01501425560634746 -0.02717503040224593 0.008357622865810294
0.01223594161587115 -0.02370919145529391 0.00736954207007805
0.01017006693256397 -0.02070828454133855 0.006428771220614993
0.008650890674558924 -0.01810814515768787 0.005553146712630913
0.007550542302829821 -0.0158518662670416 0.004752015943365955
0.006769660716428302 -0.0138900986044097 0.004028985841129952
0.006230720269130492 -0.01218063087474872 0.003383782147966079
0.005873155200404087 -0.01068766120358631 0.002813587203988844
0.005649699950419285 -0.009380967523405916 0.002313978455567195
0.005523583542425162 -0.008235077852781365 0.00187953668572445
0.005466322673829329 -0.007228520351741956 0.001504487057350361
0.0054559860018259 -0.006343152233416389 0.001182938724957151
0.005475870611942172 -0.005563587323720674 0.0009091354600432891
0.005513431270523898 -0.004876716369620441 0.0006778196717615817
0.005559417156927553 -0.004271309421955549 0.0004841119491754323
0.005607222161776231 -0.003737684394871695 0.0003233870707419299
0.005652306879671731 -0.003267445362695519 0.0001914237891847606
0.005691706034721648 -0.002853264749914613 8.421127776708824e-05
0.005723657008031231 -0.002488708760024905 -1.96898577393369e-06
0.0057473082772656 -0.002168100244194407 -7.049128567875431e-05
0.005762514510816853 -0.001886413007632897 -0.0001243446491000119
0.005769641209021902 -0.001639184522862029 -0.0001660586272904821
0.005769413137774224 -0.001422448470013427 -0.0001979606373734057
0.005762799562801694 -0.001232674505148118 -0.0002221209393958056
0.00575089370206794 -0.001066715902561502 -0.0002402779948231087
0.005734854638946831 -0.0009217690648544603 -0.0002538272287224804
0.005715883478125816 -0.0007953401982282651 -0.0002638074234002324
0.005695204542565291 -0.0006852144286781897 -0.0002710118052358958
0.005674054797836263 -0.0005894328280398347 -0.0002760899731592138
0.005653641761495899 -0.0005062669761045733 -0.0002795679900654976
0.005635117508243752 -0.0004341957923290149 -0.0002819087260523794
0.005619600223764328 -0.0003718877397595167 -0.0002834146137160818
0.005608194380135275 -0.0003181876616027395 -0.00028427813293125
0.005602006949538964 -0.0002721059187364539 -0.0002847397892785678
0.005602123785462708 -0.0002328092120839143 -0.0002850220350238766
0.005609603443129296 -0.0001996113740885672 -0.0002853911432486885
0.005625507345696578 -0.0001719650573631478 -0.0002859924773690811
0.005650925839530149 -0.0001494592370411823 -0.0002869335159922866
0.005687004737662077 -0.000131819971910751 -0.0002883687522874394
0.005734927185103923 -0.0001189085633364819 -0.0002903749870654358
0.005795941919000896 -0.0001107215450872894 -0.0002930099130181509
0.005871414567000606 -0.0001073939931486588 -0.0002962007599376266
0.005962841943600901 -0.0001092069441098647 -0.000299931953847528
0.006071867524802514 -0.000116596948926978 -0.0003041740662037612
0.00620029620575434 -0.0001301653332681249 -0.0003087718522686473
0.00635015618619494 -0.0001506921398419891 -0.0003135658769708701
0.006523734756278216 -0.0001791554073840799 -0.0003183366154419083
0.006723588587916323 -0.0002167535175251322 -0.0003229664073849805
0.006952574058016184 -0.0002649283998988793 -0.0003272941558380871
0.007213884967673141 -0.0003253956642407485 -0.0003310165747623632
0.007511136020660358 -0.000400179918296056 -0.0003337428928361305