# OOMMF: rectangular mesh v1.0
# Segment count: 1
# Begin: Segment
# Begin: Header
# Title: 
# Desc: time = 2.0112542908346963e-10
# Desc: stepsize = 3.351503615015471e-13
# Desc: step = 440
# meshunit: m
# valueunit: (none)
# valuemultiplier: 218608.9131641699
# xmin: 0
# ymin: 0
# zmin: 0
# xmax: 4e-07
# ymax: 1e-07
# zmax: 4e-09
# ValueRangeMaxMag: 0.9999999999999999
# ValueRangeMinMag: 0.003869073472297875
# meshtype: rectangular
# xbase: 2e-09
# ybase: 2e-09
# zbase: 1e-09
# xstepsize: 4e-09
# ystepsize: 4e-09
# zstepsize: 2e-09
# xnodes: 100
# ynodes: 25
# znodes: 2
# End: Header
# Begin: Data Text
0.8315405187937367 -0.5374399750060332 -0.1403492460587061
0.2492086205123046 -0.3673875693362441 0.06828537740997571
0.1169473561098043 -0.2953286193639358 0.08284148096659209
0.0627572668554689 -0.2495490628426625 0.07946448682493204
0.03475034423657664 -0.214040703249121 0.07261253601863221
0.01859776943488663 -0.1843532519898573 0.06503976096349029
0.008774165713339587 -0.1588592539687315 0.05758318359780499
0.002682749943927195 -0.1367620678774304 0.05055595129829407
-0.001065240107349461 -0.1175517448240686 0.04407964954583415
-0.003281858250416294 -0.1008388784633887 0.03819157198940737
-0.004473067496918213 -0.08629972610339239 0.03288790018108842
-0.004968998328709973 -0.07365611475432228 0.02814407882008571
-0.004992526634253668 -0.06266659983700257 0.02392501038157425
-0.004697981416816528 -0.05312120508498523 0.02019080711535563
-0.004194261059028208 -0.04483726925840301 0.01690030665018211
-0.003559237836500304 -0.03765589632492201 0.01401288435977867
-0.002849063509615121 -0.03143882060255254 0.01148975915582623
-0.002104382576261513 -0.02606556200779616 0.009294554256861615
-0.00135451584421082 -0.02143094553292366 0.007393288767158835
-0.0006204012910571644 -0.01744295828034243 0.005754642484653232
8.324150795614744e-05 -0.01402086741149049 0.00434988609556748
0.0007463963144062365 -0.01109368880307864 0.003152427143792126
0.001362656730729074 -0.008598885207501621 0.002137964859420017
0.001928361159981255 -0.006481279520915342 0.001284488735283919
0.002441963942123341 -0.004692190568125016 0.000571929349647638
0.002903506233425142 -0.003188644762641358 -1.773022243197481e-05
0.003314180205646057 -0.001932667943539358 -0.0005007595104048326
0.003676038107843475 -0.0008907133062265395 -0.0008917880467248829
0.003991741006071951 -3.31452018190845e-05 -0.001203703830598467
0.004264388588920583 0.0006661832374255349 -0.001447920522460058
0.004497392849955981 0.001230274602907823 -0.001634538565701109
0.004694315604912792 0.001679383189944766 -0.001772395628166344
0.004858767728093275 0.002031303759825015 -0.001869422689359213
0.004994352948279168 0.002301633134594076 -0.001932606414307401
0.005104598305901316 0.00250400781086058 -0.001967995808629885
0.005192944147154733 0.002650258296441975 -0.001981006346025218
0.005262683178263669 0.002750623825104276 -0.001976248666192191
0.00531689446938023 0.00281394390165034 -0.001957836091925251
0.005358471274991958 0.002847802326236812 -0.00192929334642863
0.00539011556558872 0.002858652928529708 -0.001893458131892447
0.005414350394608785 0.002851944496912089 -0.001852795772972865
0.005433507609923837 0.002832256918982949 -0.001809241851259946
0.0054497319313839 0.00280342795889673 -0.001764384510593867
0.005465046266689236 0.002768616184229428 -0.001719429986381231
0.005481354892396167 0.002730384060786136 -0.001675216862676444
0.005500471417063897 0.002690787519635794 -0.001632405908845254
0.005524147355633954 0.00265141165027238 -0.001591384017014995
0.005554100206754236 0.002613435081914185 -0.001552386053662092
0.005592058203241993 0.002577638328002989 -0.001515484687553467
0.005639771588084168 0.002544430238346166 -0.001480624719343025
0.005699053914651211 0.002513872588600078 -0.001447670537201276
0.005771808582645547 0.002485649970930808 -0.001416346568428613
0.005860064585243728 0.002459089787226334 -0.001386307796184359
0.005966021044699119 0.002433120831268445 -0.001357059426451568
0.006092072840057728 0.002406238174707719 -0.001327982711335741
0.006240869270038136 0.002376466078314633 -0.0012982744853452
0.006415357998099078 0.002341274095924553 -0.001266858439681545
0.006618856698878715 0.002297518555044383 -0.001232455839756054
0.006855111799741898 0.002241306091580494 -0.001193371544766607
0.007128344810721627 0.002167858864718389 -0.001147502395627853
0.00744336928093459 0.002071389631273982 -0.001092202122668507
0.007805676062535475 0.001944904010014686 -0.001024166006102964
0.00822152394037102 0.001779969019124585 -0.0009395091153018453
0.008698019842720202 0.001566443450711191 -0.0008333172507879214
0.009243228156534434 0.001292210957865515 -0.0006997033726903084
0.00986635508394668 0.0009428912374953278 -0.0005316993340962108
0.01057783050486023 0.0005014135791918118 -0.0003209929168865916
0.0113894041403435 -5.244777721884548e-05 -5.789703493897547e-05
0.01231429073844606 -0.0007425071826310675 0.0002692329256738422
0.01336729751837789 -0.001596704409783329 0.0006740381157288862
0.01456497674386745 -0.002647686673622235 0.001172426227855424
0.01592569324869815 -0.003933476256009268 0.001783152191183474
0.0174696333488128 -0.005498217084127491 0.002528100122201502
0.01921879102849806 -0.007392849841523382 0.003433005553940773
0.02119682747074512 -0.009675813922214524 0.004528038371356123
0.02342880465621154 -0.01241368613099361 0.005848088079867931
0.02594067524526131 -0.01568173245168666 0.007433474719684249
0.02875836702340539 -0.01956431248235787 0.009330552389295492
0.03190651888570941 -0.02415492140784155 0.01159201490789788
0.03540671206448065 -0.02955579826429753 0.01427745199894397
0.03927506062119947 -0.03587702702306785 0.01745313958610794
0.04351914525935626 -0.04323492946538894 0.02119166698571557
0.04813409630553326 -0.05174974774288167 0.02557130388755697
0.05309796081012768 -0.06154257031824259 0.03067412074069355
0.05836670464500683 -0.07273137355917035 0.03658368183499969
0.06386910352915819 -0.08542635781659073 0.04338202593928098
0.06950232630105961 -0.09972472315357159 0.05114488460760551
0.07512927887065701 -0.1157051045578069 0.05993603873533826
0.08057851103799428 -0.1334218289236672 0.06980154418584864
0.08564760785440609 -0.1528985337675523 0.08076396428910163
0.09011049237570301 -0.1741198697465791 0.09281790041339434
0.09372788988487971 -0.1970184552564384 0.1059272090042821
0.09625978909074932 -0.2214502489110725 0.1200247398444317
0.09747981858044434 -0.2471432774295877 0.1350151696196828
0.0971993069056442 -0.2735836218664328 0.1507803020334475
0.09534306507936166 -0.2997388658794362 0.1671925140668631
0.09227105963906362 -0.3232925753164774 0.1841784240352736
0.09041110041844035 -0.3380401030920766 0.2021430605016043
0.1057034074946596 -0.3215945939375928 0.2264336575578375
0.3327016055619031 -0.133161558018814 0.3580680175202366
0.8778709299572466 -0.1883642231944794 -0.2407445318778461
0.3093966601128427 -0.1717953855633052 -0.006721189822852989
0.1560586609718136 -0.1429932886904056 0.01842911843485156
0.09137873004569114 -0.1197146893083727 0.02251394232672515
0.05759179569962292 -0.1013942528433496 0.02233019107368268
0.03763402981111042 -0.08649460863629251 0.0209125057997205
0.02495590685300374 -0.07407082169514681 0.01909350095871508
0.01656034130720607 -0.06356464642061035 0.01716897052664768
0.01088482260014036 -0.05461312274427822 0.01526670894037072
0.007029155731645711 -0.04695413773919635 0.01344961234439704
0.004433744557941001 -0.04038369726824632 0.01175026998549481
0.002730323201104524 -0.03473609927164207 0.0101848865811047
0.001666083253080163 -0.02987384636435342 0.00875953653107055
0.001062044644585732 -0.02568172944872875 0.007473758848666429
0.0007886159663607965 -0.02206278992171688 0.006323020796708894
0.0007504338774286045 -0.0189352327104683 0.005300188243407299
0.0008765445946176895 -0.01622993413507736 0.004396872181251968
0.001113785284803243 -0.01388836456641226 0.0036041135682681
0.001422253933515834 -0.01186084436806123 0.002912577911616485
0.001772073544602313 -0.01010507937639289 0.002313106126684426
0.002140956653693879 -0.008584934783807948 0.001796862265280816
0.002512452324695809 -0.007269425249732906 0.001355088445865595
0.002874655941477601 -0.006131881089204348 0.000979499053746831
0.003219171046504376 -0.00514926891591717 0.0006624490826544511
0.003540359425032887 -0.004301632272528874 0.0003967334340290394
0.003834725913359148 -0.003571623718676024 0.000175867144284104
0.004100394779730849 -0.002944113365003794 -6.125761401791406e-06
0.004336745840047757 -0.002405870435323488 -0.0001546917314421305
0.004544097112748524 -0.001945296689381755 -0.0002745010350384843
0.004723474901044046 -0.00155220904067965 -0.0003696447554618895
0.00487646680369225 -0.001217657857223277 -0.0004437238534852425
0.005005031992950953 -0.0009337671809839607 -0.0004998326483782513
0.005111359923995735 -0.0006936004794994728 -0.0005408584558817481
0.005197790449889539 -0.0004910527608157092 -0.0005693662861263757
0.005266711036923302 -0.0003207594611570259 -0.0005875437077099597
0.005320539496055101 -0.0001780185937769552 -0.0005974634890119608
0.005361668452379056 -5.871618631913602e-05 -0.0006008593951012375
0.005392378585745283 4.074068776497777e-05 -0.0005993981726887785
0.005414846006256446 0.0001234781599984503 -0.0005945147038786218
0.005431129429880985 0.0001922003688721068 -0.000587261510567293
0.005443187622961951 0.0002492364813785619 -0.000578608343670447
0.0054528643367755 0.0002965857223535234 -0.0005692335132597899
0.005461870758091564 0.0003359545133718979 -0.0005596818304342082
0.005471840551034168 0.0003687846312989275 -0.0005502926163924105
0.005484337298672118 0.0003962815521320706 -0.0005411955801635612
0.005500872109004471 0.0004194396092113299 -0.0005324962453898005
0.005522922435932458 0.0004390600805869576 -0.0005241502190003652
0.005551951832729335 0.0004557669093791601 -0.0005160900256237823
0.005589447222795923 0.0004700156008164064 -0.0005082042419391594
0.005636930109259333 0.0004821005507578421 -0.0005003725083425636
0.005695985410966329 0.0004921602982583829 -0.0004925174007709645
0.005768284669866539 0.0005001743602070631 -0.0004845366134186065
0.005855617372905426 0.0005059605448206558 -0.0004763901458787357
0.005959922670080836 0.0005091662813780823 -0.0004680163884368
0.006083312309260662 0.0005092538046822755 -0.0004593754875670964
0.006228118183588688 0.000505483024372182 -0.0004503980815368059
0.006396927382756864 0.0004968858641934923 -0.0004409066262211542
0.006592639092218323 0.0004822342287905 -0.0004307280066473526
0.006818503765584879 0.000459997928943818 -0.000419496200435757
0.007078168735744667 0.0004282976911314247 -0.0004067091346804888
0.007375780076831919 0.0003848512705738939 -0.0003916273106018615
0.007716035841360692 0.0003269053063042237 -0.0003732197418228488
0.008104257773025581 0.0002511560436154972 -0.0003503414732176888
0.008546464051985421 0.0001536625065149076 -0.0003213315880556288
0.009049468207888324 2.975126943093399e-05 -0.0002841723646178808
0.009621022225671226 -0.0001260911679028046 -0.0002364978146373053
0.01026985355340022 -0.0003203494315183229 -0.0001754714721284453
0.01100576069103342 -0.000560618372322868 -9.792410348720446e-05
0.01183974480645354 -0.0008557425815425865 1.046115283865702e-07
0.01278409998686316 -0.00121596905086378 0.000123203938631356
0.01385253950295359 -0.00165310915721398 0.0002766274888169049
0.01506023767092469 -0.002180695712942515 0.0004666554948426388
0.0164238516298604 -0.002814133363266899 0.0007006109775592149
0.01796154527911448 -0.003570810700089906 0.000987338556916445
0.01969288943142368 -0.004470164504999311 0.001337547620537268
0.02163867005689885 -0.005533681353225127 0.001763788084440356
0.02382049290624038 -0.006784801832735811 0.002280916459796148
0.02626005382842007 -0.008248687771543656 0.002906508070289378
0.02897813985340534 -0.009951822974858228 0.003661024640526454
0.03199316349087649 -0.01192140540980367 0.004568438001071251
0.03531909845826484 -0.01418452845304392 0.005656225305206324
0.03896278346712474 -0.01676716114369512 0.00695541093739057
0.04292034001441972 -0.01969296512893329 0.008500679960868405
0.04717283446357307 -0.02298203075115645 0.01032953290553565
0.05168147694496109 -0.0266496746824713 0.01248138261270399
0.05638253619200036 -0.03070544600505638 0.01499629729488699
0.06118282279705672 -0.03515249007947471 0.01791208096173866
0.06595696086614104 -0.03998727198109921 0.02126053737763311
0.07054764170058539 -0.04519931579928613 0.02506352917966539
0.07477054893221795 -0.05077004240308068 0.02932864745985554
0.0784256455699826 -0.05666871794570246 0.03404577876023896
0.08131643856876308 -0.06284186326437563 0.0391851998592127
0.08328096244536606 -0.06918939294794355 0.04469852711290109
0.08424582475109868 -0.07551422551423119 0.05052462794624824
0.08434196070017302 -0.08141613871797318 0.056603981573033
0.08421876738226551 -0.08605746159052807 0.06291984438469593
0.08608381234322758 -0.08760276033243762 0.06966022052414374
0.09791538975644359 -0.08178307369106654 0.07810305824437926
0.155900683686174 -0.05867204381458643 0.0983115158793573
0.5165915562149752 -0.007194738840200549 0.2709505967616572
0.8537414433060757 -0.1032289829925331 -0.2469141582607802
0.3230671483974758 -0.1128777116316952 -0.01736972224844406
0.1747236943082812 -0.1038681156320608 0.009835760779040793
0.1080921858330064 -0.09090288744395834 0.01573769965027035
0.07171536040377027 -0.07845397174567377 0.01687698845608944
0.04953228951552382 -0.06749753205885747 0.0164535788681262
0.03502969399376375 -0.05806964372745266 0.0154145750270904
0.02512738332486184 -0.05000228442118956 0.01411990099300483
0.01819289511038821 -0.04310563396621572 0.01273509564871425
0.01327713077911642 -0.03720721373742465 0.01134771867591263
0.00978530656819584 -0.03215741711774221 0.01000796271878525
0.007322113390156076 -0.02782809008086456 0.008745315899749889
0.005612856749381313 -0.02411007693746137 0.007576192151995774
0.004460343287338387 -0.0209108242567626 0.006508262633156373
0.003719670013365993 -0.01815216988881033 0.005543403185470947
0.003282584389578675 -0.01576830789552979 0.004679580044486548
0.00306730416897842 -0.01370395394703048 0.003912502038758855
0.003011600959254684 -0.01191270646928632 0.003236520299737919
0.003068011132824054 -0.01035561092616063 0.002645008658861444
0.003200367187042286 -0.008999918645134405 0.002131052441054149
0.003381154974156312 -0.007818025360830266 0.001687683894593126
0.003589578863724048 -0.006786591765454924 0.001307720674199758
0.003810113508201248 -0.005885805402515125 0.0009842311422541287
0.004031334762484176 -0.00509877549195057 0.0007107455133292738
0.00424506718429155 -0.004411038447011331 0.0004810944694585544
0.004445685422213985 -0.003810148801262227 0.0002897201699431655
0.004629517387919728 -0.003285339185723328 0.000131475872255727
0.004794419090896679 -0.002827252742637202 1.646126855745399e-06
0.004939407076584746 -0.002427722641711639 -0.0001037796898979479
0.005064387570477501 -0.002079592842767489 -0.0001882923420781304
0.005169981979178901 -0.001776573432224132 -0.0002549570513530819
0.005257313437644501 -0.001513118072559836 -0.0003063886635716196
0.005327840684580502 -0.001284321896219709 -0.0003450510380596184
0.005383258411609014 -0.001085844291418272 -0.0003731400601368179
0.005425379755649012 -0.000913844117026083 -0.0003925121078007792
0.005456111311452638 -0.0007649251151189491 -0.0004049380739097053
0.00547739406952105 -0.0006360869559492128 -0.0004118923253898478
0.005491106451128782 -0.0005246805275489556 -0.0004148185914567056
0.005499060661428425 -0.0004283734291365391 -0.0004149614826706179
0.00550298850646889 -0.0003451227452991569 -0.0004132057207931604
0.005504558480324905 -0.0002731449551821191 -0.000410368184912448
0.005505356811821172 -0.0002108887237744274 -0.000407007004042813
0.005506862669067416 -0.0001570115119843432 -0.0004035625807123331
0.005510498406861655 -0.0001103634037200967 -0.0004002853886740009
0.005517637931492817 -6.996991898215687e-05 -0.0003972336614604939
0.005529619942545517 -3.501668717623265e-05 -0.0003944502806158018
0.005547762301264794 -4.839005428155975e-06 -0.0003918503754761356
0.005573379025920552 2.108941629364268e-05 -0.0003893359869978082
0.005607814092222065 4.316183710654016e-05 -0.000386782390698208
0.005652451524460388 6.164363032915903e-05 -0.0003840753444252641
0.005708739333276883 7.667653061728508e-05 -0.0003811546867852832
0.005778209971696107 8.827528946715018e-05 -0.0003779597364388408
0.005862508860861998 9.632583045118889e-05 -0.0003745036384806212
0.005963420669933684 0.0001005779291368878 -0.0003707981653236605
0.006082890179195379 0.0001006340057077621 -0.0003668997988551501
0.006223063873669272 9.593629624525776e-05 -0.000362848772947584
0.006386319804985227 8.574689518243489e-05 -0.0003586078052030603
0.006575319222822259 6.912589735537605e-05 -0.0003541650559667487
0.00679303856474715 4.490296035243336e-05 -0.0003493486644359771
0.007042811754102865 1.164686020984019e-05 -0.0003438923610243256
0.007328423034311504 -3.237157742909689e-05 -0.000337324795587479
0.007654150517914837 -8.922589286084366e-05 -0.0003289409473000553
0.008024832420408058 -0.0001613822206689206 -0.0003179812517963508
0.008445932337544683 -0.0002517550768472037 -0.0003032417417037853
0.008923630286050229 -0.0003637709673731108 -0.00028325058124885
0.009464954350049874 -0.0005014360067157971 -0.0002562760596035897
0.01007780869641887 -0.000669413746281434 -0.0002202368397600326
0.01077106875858805 -0.0008731016589383823 -0.0001728627694646377
0.01155470981961482 -0.001118707347078193 -0.0001112440919405728
0.01243989454279799 -0.001413327458757874 -3.202443871731439e-05
0.01343910633053153 -0.001765017981497148 6.860778465225588e-05
0.01456620520660917 -0.002182844678862114 0.0001952596813715957
0.01583647988102213 -0.002676913994351965 0.0003533065667021604
0.01726672002106194 -0.003258356493311778 0.0005493635655830766
0.01887517748000211 -0.003939254145779083 0.0007916216570374477
0.0206814635400287 -0.004732490562542667 0.001089800698839163
0.02270627285240743 -0.005651490545430807 0.00145563499178565
0.02497080111869474 -0.006709822324243612 0.001903295304422104
0.02749592537492191 -0.007920643908585571 0.002449593308622206
0.03030092866047753 -0.009295963057073994 0.003114707303722662
0.03340161461941581 -0.01084571915817498 0.003922287960411375
0.036807759796168 -0.01257670724505992 0.004899637178821117
0.04051959852333585 -0.01449140018290418 0.006078022950139523
0.04452341653212735 -0.01658677206755618 0.007492031605708786
0.04878650983226241 -0.01885331443057508 0.009178846144185134
0.05325166576057189 -0.02127442111121781 0.01117711317319878
0.05783209329975427 -0.02382634602679109 0.01352397111945775
0.06240825571254546 -0.02647879224974978 0.01625106849767163
0.06682824302832094 -0.02919587141760466 0.01938013518596213
0.07091416739769786 -0.03193663767761379 0.02291787940855232
0.07447752303152348 -0.03465341011190005 0.02685171034512152
0.07734705880907838 -0.03728474813455166 0.03114726102927891
0.07941635182695236 -0.0397378748462156 0.03574938254171841
0.08072951311705358 -0.04185187392236343 0.04058952758640046
0.08165982013348962 -0.04332664886382602 0.0456049525071393
0.08335565604040165 -0.04359223184680716 0.05079389130055531
0.08905496481728621 -0.04158946114455703 0.0564226719916252
0.1086977815886623 -0.03554543782214003 0.06406942341681907
0.1799780376694978 -0.02368691429831137 0.08473876156770108
0.5411577074481371 -0.01046063064908248 0.2576615648315244
0.8196458865822485 -0.06864248605684077 -0.2449080827564552
0.3203776071111274 -0.08662829904164375 -0.02321921733023126
0.1825036024843869 -0.08661031819694986 0.004405523230451565
0.1185947975392781 -0.07984308171873976 0.01157246848807445
0.08212729594122162 -0.0710712702711781 0.01383782005429944
0.05898010475095878 -0.06227549849768615 0.01427086009334221
0.04332593662439257 -0.0541845507840998 0.01385631933383488
0.03231303073270894 -0.04700646287581119 0.01301220468774653
0.0243785917814771 -0.04074444897660713 0.01195219546672116
0.01858812101144199 -0.03532601589275434 0.01079937937967516
0.01434202882882367 -0.03065530409941314 0.009629455453224571
0.01123350422900304 -0.026634503508479 0.008490181509900831
0.008974501621473731 -0.0231725371717625 0.007411104455214549
0.007354628643517554 -0.02018824288929995 0.006409327002412189
0.006216799800240248 -0.01761106357533465 0.005493471753408217
0.005441935426585474 -0.0153805841206748 0.004666326504442369
0.004938857751417419 -0.01344557490399219 0.003927030110837539
0.004637320495190846 -0.01176285146244831 0.003272366251231069
0.004483100308296551 -0.01029613042992028 0.002697433519547433
0.00443438141262209 -0.009014960261194608 0.002196524632076365
0.004458959216693908 -0.007893758148178255 0.001763507776226615
0.004532155853613043 -0.00691099062045111 0.001391778930156353
0.004635237120990203 -0.00604847090821061 0.001074802425638829
0.004754126462885182 -0.005290771879122845 0.0008063897958217769
0.004878453374806919 -0.004624744957520048 0.0005805859469081783
0.005000775372643548 -0.004039124948668345 0.0003919954905310841
0.005115911945237237 -0.003524196882731271 0.0002356065897829175
0.005220457761733136 -0.003071537043709268 0.0001068120788152457
0.005312367563527124 -0.002673800989081712 1.69010606941353e-06
0.005390647519573927 -0.002324552734076449 -8.316478209649718e-05
0.005455152115793856 -0.002018128589468709 -0.0001507384980814422
0.005506347762695115 -0.001749523433895647 -0.0002035761056354362
0.00554512412801649 -0.001514296326242259 -0.0002440831286552154
0.005572676140583107 -0.001308501353699336 -0.0002744072330611655
0.005590373650280997 -0.001128629500617855 -0.0002963545152555032
0.005599728361576706 -0.0009715615977775769 -0.0003116360230878163
0.005602331665471845 -0.0008345277715990446 -0.0003216738515075032
0.005599749678456001 -0.0007150679714845194 -0.0003278636904561567
0.005593509822324669 -0.0006110021685469852 -0.0003314096410428189
0.00558508595565532 -0.0005204084177051956 -0.0003331561868305279
0.005575914602574158 -0.0004415983528793759 -0.0003338727905533084
0.005567373467841356 -0.000373095213247714 -0.000334087234159208
0.005560751539286322 -0.0003136136235936576 -0.0003342085170830174
0.005557294753800214 -0.0002620467468873333 -0.0003344583031695246
0.005558215907563792 -0.0002174526944448632 -0.0003348735779958327
0.005564704711193813 -0.0001790419853421674 -0.0003354743893900244
0.005577939463175664 -0.000146168851728372 -0.000336169236030602
0.005599102613772525 -0.000118320963839599 -0.0003368535440509937
0.00562941135290941 -9.511509715120818e-05 -0.0003374033467486357
0.005670127367926653 -7.629280125132852e-05 -0.00033771602659131
0.005722576547959784 -6.171653938519001e-05 -0.0003377437898490434
0.005788167139309818 -5.137304865990307e-05 -0.0003374546770674445
0.005868415833431785 -4.537511934583014e-05 -0.0003368909520480492
0.005964969264953262 -4.396906469514896e-05 -0.0003361035081791004
0.006079623693626524 -4.754521712536756e-05 -0.0003352008435485493
0.006214361078064271 -5.665031989384486e-05 -0.0003342768022049093
0.00637137563575454 -7.200613831936917e-05 -0.0003333678706965149
0.006553122728744607 -9.452838679814453e-05 -0.0003325408868553957
0.006762345595179351 -0.0001253517198561766 -0.0003317196655565478
0.00700211504139906 -0.0001658550951339975 -0.0003307571826692074
0.00727591441049946 -0.0002176944363452728 -0.0003293106054639193
0.007587678455904706 -0.0002828428977087162 -0.0003268353826673344
0.007941856804487273 -0.0003636296786909187 -0.0003227574779158002
0.008343471034540318 -0.0004627880312091448 -0.0003160941028781375
0.008798200383754042 -0.0005835101535077187 -0.0003056387667250478
0.009312509087016977 -0.0007295034165999448 -0.0002899577476058541
0.009893673189354094 -0.0009050524687531772 -0.0002673274164336152
0.01054987740909123 -0.001115075885891886 -0.0002359075566718233
0.01129034359571272 -0.001365183841952253 -0.0001932893814276788
0.01212542548553992 -0.001661733897572092 -0.0001367034363671871
0.01306675946049975 -0.002011870739754081 -6.302099835824673e-05
0.01412734297686358 -0.002423542894905912 3.157838362550125e-05
0.01532162387763688 -0.002905494859160558 0.0001515519301184995
0.01666562641342508 -0.003467208232243113 0.000302476090222134
0.01817698182862259 -0.004118783705164854 0.000491395975140964
0.01987492556031422 -0.004870737701758284 0.0007267773305058907
0.02178014764245698 -0.005733682617828475 0.001019029911893133
0.02391435985977161 -0.006717861517265282 0.00138095072338491
0.02629965360785223 -0.007832523235340255 0.001827979987950043
0.02895741107161042 -0.009085098188470064 0.002379037065186444
0.03190659483078451 -0.01048017967911577 0.003056737128949056
0.03516134308939204 -0.01201831998554964 0.003887698007500236
0.038727508631058 -0.01369469365421434 0.004903041488060118
0.04259815345828197 -0.0154977277186904 0.006137926781006539
0.04674820606446389 -0.01740789986820458 0.007630987580908534
0.05112839574146508 -0.01939691483022664 0.009423285115214845
0.05565943237166946 -0.02142753528534638 0.01155522926127444
0.06022806999130747 -0.02345425835034 0.01406227216324196
0.06468707175376751 -0.02542480089793399 0.01696985607598488
0.06886226392092638 -0.02728192959737526 0.0202873116806949
0.07257067280440214 -0.02896433943683629 0.02400239322266305
0.07565463921473607 -0.03040428605364426 0.02807774433533504
0.07804083072844062 -0.03151854045119084 0.03245125347553431
0.07984473525763608 -0.03218835253784248 0.03704387688863992
0.08157719013105182 -0.03222472303339006 0.0417815880602562
0.08462212089658018 -0.03132245927786582 0.04665802408468012
0.09253644551191416 -0.02903936602702286 0.05195900861634205
0.115333730495008 -0.02495959949856899 0.05933051637538414
0.1888423203502048 -0.01956359620691512 0.07972809926851691
0.5405840721387228 -0.01743873324124713 0.2486725165081584
0.7819191040642728 -0.05069386207127344 -0.2413706507860171
0.3111326917663677 -0.07208679209585966 -0.02859558682511079
0.1842362405612814 -0.0766796945552629 -0.001213840937357916
0.1249443664369113 -0.07389897962313478 0.006919603737722929
0.0899882022344293 -0.06787445573524173 0.01028071536478924
0.06690579142257 -0.06076608840034742 0.0116585056678697
0.05070371428845907 -0.05364986270975482 0.01198448233938883
0.03892649981528476 -0.04701318959335866 0.01169585308531046
0.0301924078593789 -0.04104080168709404 0.01104294291062699
0.02364591470121538 -0.03576878684342456 0.01018433214375267
0.01871831191859483 -0.03116407809124687 0.009224996659649902
0.01501096679668635 -0.02716468889982027 0.008235366172120406
0.01223343418755698 -0.02369985079979722 0.007262003411863622
0.01016829807971044 -0.02069984549098144 0.006334539383052276
0.008649812390136022 -0.01810050235002157 0.005470714882212525
0.007550093142004099 -0.01584491876965679 0.004679889543600459
0.006769737474472786 -0.01388376059434926 0.003965880986611297
0.006231165056094683 -0.01217483869852406 0.003328798171430991
0.005873795360284421 -0.01068237511088984 0.002766094738466081
0.005650407388070457 -0.009376169921976499 0.002273691572691932
0.005524262109366595 -0.00823076583966943 0.001846574304142616
0.005466906750219431 -0.007224696200011443 0.001478901421235924
0.005456480840342145 -0.006339818721220215 0.001164633120054974
0.005476327721162289 -0.005560743360739359 0.0008979144188250611
0.005513946958130972 -0.004874354016415286 0.0006730284173185268
0.005560139303252149 -0.004269415304886503 0.0004847316505171157
0.005608274681097117 -0.00373623882349582 0.0003281216710715
0.005653742920804131 -0.003266421570303062 0.0001986715336554832
0.005693490720646318 -0.00285263156525892 9.251114158747164e-05
0.005725675050813494 -0.002488435722272649 6.285764287824292e-06
0.005749429554391148 -0.002168163544987064 -6.294270256217839e-05
0.005764605523836457 -0.0018867952358591 -0.0001176856219672398
0.005771561293308274 -0.001639867637843252 -0.0001603226470109737
0.00577102574672149 -0.001423407170276567 -0.0001929838508200241
0.005763955574001203 -0.001233871712719525 -0.0002174572360356455
0.005751493134752921 -0.001068104622166768 -0.000235422944090226
0.005734901425296647 -0.0009232964656752867 -0.0002482765269827671
0.005715452910789628 -0.0007969461993067936 -0.0002573861086138884
0.005694406472580835 -0.0006868318336526582 -0.0002639302851166301
0.005672991106829041 -0.0005909893840916398 -0.0002687256784484846
0.005652420828740501 -0.0005076897707681275 -0.0002725033308384473
0.005633871557670105 -0.0004354188523185731 -0.0002757672710614395
0.005618447438209364 -0.000372857617478432 -0.0002789018094970839
0.005607221736447712 -0.000318868921512087 -0.000282106744295956
0.005601248013009222 -0.0002724843020762704 -0.0002854050131551153
0.005601567655290861 -0.000232891975684449 -0.0002888004254963274
0.005609219343715647 -0.0001994281489521576 -0.0002921996325012119
0.005625253364795665 -0.0001715671573339179 -0.0002954946510404054
0.005650758861455312 -0.0001489172315938262 -0.0002985622255504872
0.005686873260687869 -0.0001312167247821862 -0.0003013095037316134
0.005734798312406621 -0.000118330755806899 -0.0003036982949527958
0.00579581594626248 -0.0001102542302979913 -0.0003057201768185
0.005871311913518166 -0.0001071141226899673 -0.0003074409949234677
0.005962792921188349 -0.0001091767442787247 -0.0003089429684416074
0.006071905009751429 -0.0001168579482516346 -0.0003103767343760396
0.006200464464805177 -0.000130735779837053 -0.0003118796638025637
0.006350481830474685 -0.0001515681326126753 -0.0003135483022509181
0.006524208548972986 -0.0001803110838678154 -0.0003155118079004449
0.006724159268958274 -0.0002181429148470041 -0.0003177713826051557
0.006953148758716435 -0.0002664880288016988 -0.0003202774729831315
0.007214369564726563 -0.0003270490724646368 -0.0003227923022712144
0.007511428348465758 -0.0004018446751464172 -0.0003249026047644607