# OOMMF: rectangular mesh v1.0
# Segment count: 1
# Begin: Segment
# Begin: Header
# Title: 
# Desc: time = 9.429883661562519e-11
# Desc: stepsize = 4.183745808701689e-13
# Desc: step = 180
# meshunit: m
# valueunit: (none)
# valuemultiplier: 218485.8623856973
# xmin: 0
# ymin: 0
# zmin: 0
# xmax: 4e-07
# ymax: 1e-07
# zmax: 4e-09
# ValueRangeMaxMag: 1
# ValueRangeMinMag: 0.003873664366231814
# meshtype: rectangular
# xbase: 2e-09
# ybase: 2e-09
# zbase: 1e-09
# xstepsize: 4e-09
# ystepsize: 4e-09
# zstepsize: 2e-09
# xnodes: 100
# ynodes: 25
# znodes: 2
# End: Header
# Begin: Data Text
0.8320685511322613 -0.536438786745879 -0.1406915060987384
0.249494897948513 -0.365975540341171 0.06821719644123531
0.1171885123953783 -0.2939755692057875 0.08279516441293902
0.06296840220616592 -0.2483324819984722 0.07941451664795827
0.03493808474615331 -0.21296933878697 0.07255625444170255
0.01876680654155299 -0.1834169336569597 0.06497871095228293
0.008927912075679591 -0.1580425900622725 0.05751956554493803
0.002823698426972199 -0.1360492077917407 0.05049172547730831
-0.0009352125961552644 -0.1169281755543715 0.04401612071639339
-0.003161264374049854 -0.1002919714283472 0.03812956660134549
-0.004360714573387381 -0.08581875409175332 0.0328279126826999
-0.004863952364831389 -0.07323210758903363 0.02808619902565103
-0.004894077440512441 -0.06229209195660533 0.02386910789992807
-0.004605606579768666 -0.05278993296840519 0.02013676063040887
-0.004107574430736229 -0.04454396393900778 0.01684802423236804
-0.003477939917855142 -0.03739609807763579 0.01396239809912805
-0.002772903856172599 -0.03120868962937251 0.01144109846214997
-0.002033112862007513 -0.02586173792305541 0.00924758969256082
-0.001287893911171386 -0.021250441177022 0.007347877966857058
-0.0005582160749569772 -0.0172830894042496 0.005710559655664767
0.0001412070418054059 -0.01387925306207258 0.004306795038635933
0.0008003836388453139 -0.0109682596102053 0.00311022748672202
0.001412911248868398 -0.008487895423088176 0.002096810830978973
0.001975129069272932 -0.006383308789721381 0.001244692953542128
0.002485457587082076 -0.004606080209182664 0.000534041916195966
0.002943898525218479 -0.003113430596796674 -5.313884809309683e-05
0.00335163356607258 -0.001867531546729324 -0.0005331045386126312
0.003710704475630043 -0.0008349328647079931 -0.0009205332267266097
0.004023776475459851 1.395664129689852e-05 -0.00122865408893141
0.004293942873988574 0.0007053004573075077 -0.001469263093826557
0.004524561681888892 0.001262182265628554 -0.001652869638358092
0.004719148629065877 0.001704939348058481 -0.001788693919184457
0.004881306035593906 0.002051437608422739 -0.001884678656309275
0.005014658390236233 0.002317297731072587 -0.001947738680597237
0.005122781070341117 0.00251606895462792 -0.001983757584806053
0.005209112817128035 0.002659418450441709 -0.00199755815858992
0.005276961339980135 0.002757393847415084 -0.001993240790761171
0.005329527451364683 0.002818645650156121 -0.001974519077071577
0.005369776138613288 0.002850534263739418 -0.001944718694515216
0.005400337818947632 0.002859273180425353 -0.001906739519673161
0.005423595773939553 0.002850235079704685 -0.001863130907389673
0.005441794103671407 0.00282813819678674 -0.001816113248426558
0.00545704489977302 0.002797025583581845 -0.00176765079624151
0.005471346199201973 0.002760252799814312 -0.001719378162412785
0.005486618377703708 0.002720479152341026 -0.001672298072024905
0.005504689152590687 0.002679705450588913 -0.001626778758703464
0.005527345888298369 0.00263941616880485 -0.001582980535402476
0.005556403852608173 0.002600713982646674 -0.001541217629581544
0.005593662689296783 0.002564391441006715 -0.001501914081630571
0.005640863695224809 0.00253092284896189 -0.001465478153392577
0.005699704311100289 0.002500414965908197 -0.001432240541273649
0.00577193466222771 0.002472580842229223 -0.001402135988707994
0.005859504349577248 0.002446715612448221 -0.001374461134100819
0.005964606566595155 0.002421687863154852 -0.001348096865839143
0.00608968476125964 0.002395956448866251 -0.001321923456356916
0.006237458513518384 0.002367552191909124 -0.001295092694297327
0.006410906523418592 0.002334020645411833 -0.00126684170687043
0.00661331911218583 0.002292289540737942 -0.001236015149968118
0.006848419506098889 0.002238439594135434 -0.001200816916253978
0.007120440305626664 0.00216754712994749 -0.001158762672621146
0.007434180874714716 0.002073621460003893 -0.001106716947756971
0.007795052987599684 0.001949536761878797 -0.001041078633622952
0.008209165481129701 0.001786938624849887 -0.0009578167399219396
0.008683526703809889 0.001575961146542373 -0.0008521128470647103
0.009226255932817699 0.001304763004447479 -0.0007181378470979483
0.009846640671382476 0.0009591482295297189 -0.0005492165195597638
0.01055512372334532 0.0005222594295206976 -0.0003376549197011499
0.01136343784714011 -2.585704063866335e-05 -7.419472424146671e-05
0.01228481874806382 -0.0007088451930352832 0.0002523750074333587
0.0133341163418084 -0.001554596291540225 0.0006555089724337233
0.01452785521437376 -0.002595764615943592 0.001151193214948966
0.0158843411544315 -0.003870393956953069 0.001758317950403293
0.01742375127989457 -0.005422612417838542 0.002499154835961982
0.01916810412501551 -0.00730333506812807 0.003399777834192843
0.02114111823509852 -0.009570959834049597 0.004490478940869169
0.0233679165980421 -0.01229202666215586 0.00580633134431886
0.02587449336232139 -0.015541770605944 0.007387758033541619
0.02868687853576215 -0.01940448430221969 0.009281025690749834
0.03182988592921938 -0.02397359508561319 0.01153876436378608
0.03532534909195861 -0.0293513209591898 0.01422028549632503
0.03918973275308057 -0.03564780690486103 0.01739167134440301
0.04343102068615489 -0.04297958614926152 0.02112551417808795
0.04804483821353067 -0.05146728648432503 0.02550006316142148
0.05300986705079834 -0.06123249832176751 0.03059770097232193
0.05828276268030148 -0.07239382860614969 0.03650249495045729
0.06379302217487855 -0.08506222785987573 0.04329672103833474
0.06943850859498664 -0.09933576021019586 0.05105634310187719
0.07508258651297284 -0.1152940208327586 0.0598455734587456
0.08055393357048131 -0.1329922603493114 0.06971094484041601
0.08564990623795717 -0.1524549079031376 0.08067556843073277
0.09014377972716182 -0.1736672640383717 0.09273445675746465
0.09379527292146596 -0.1965623606757911 0.1058518259524534
0.09636311025139899 -0.2209962781483943 0.1199609281956526
0.09761953336013827 -0.2466969186871683 0.1349665444881586
0.09737478893721777 -0.2731498742652714 0.1507504062938909
0.09555362085458122 -0.2993215113908791 0.1671851766545799
0.09251848265738338 -0.3228926478542706 0.1841978258485753
0.09070745892329353 -0.3376516954148698 0.2021944160670594
0.1061055109938253 -0.3211895837278659 0.2265314541216651
0.333624475899268 -0.1326163498693948 0.3583726617220089
0.8790695773013169 -0.1881000948933105 -0.2406830701514844
0.3097981741472012 -0.1712860275133752 -0.006252711308531036
0.1562627351354293 -0.1424280917063262 0.01887308629243888
0.09151050683600527 -0.1191731758090119 0.02289174809407352
0.0576924482424934 -0.1009035611577798 0.0226439735271577
0.03772036966804464 -0.08606090670600491 0.02117166522683801
0.02503542717750608 -0.07369195334838646 0.01930778037021412
0.01663638487932511 -0.06323535801902021 0.01734686021041245
0.010958779411047 -0.05432734031884338 0.01541495420526705
0.007101532803462621 -0.0467059654329094 0.01357349271795052
0.004504637259467029 -0.04016781798964579 0.01185389878262719
0.002799618739739541 -0.03454789482554046 0.01027129306335347
0.001733579115893349 -0.02970938694416113 0.008830982262175954
0.001127500543724097 -0.02553770149231176 0.007532090313885019
0.0008517865757598779 -0.02193640544321388 0.006369823796310177
0.0008111070946101276 -0.01882414263818638 0.005336966956667157
0.0009345651192560246 -0.01613214877489566 0.004424933392176409
0.001169082949918983 -0.01380218218443216 0.003624437897559697
0.001474815842080707 -0.01178479389861871 0.002926012940688536
0.001821887083401373 -0.01003788079953413 0.002320299832901405
0.00218802370276261 -0.008525476461090755 0.001798259710084003
0.002556799787767466 -0.007216752690898315 0.001351315106001128
0.002916317768954178 -0.006085189229461683 0.000971373761476202
0.00325820594622171 -0.005107888446804579 0.0006508884186675032
0.003576829661608767 -0.004265009554355636 0.0003828437927846891
0.003868687943986408 -0.00353930113414297 0.0001607070524806082
0.004131924792012203 -0.002915711168741853 -2.153416363113198e-05
0.004365937900037871 -0.002381067723139185 -0.0001694182998544289
0.004571083421137309 -0.001923810588165618 -0.0002880371879657977
0.004748419616033245 -0.001533771600511517 -0.0003819451046430219
0.004899502345216531 -0.001201994987344098 -0.0004552210932071299
0.005026247541803771 -0.0009205881353789978 -0.0005113820989122144
0.00513082398340591 -0.0006825965408320473 -0.0005533148753798286
0.005215551363857637 -0.0004819077828510285 -0.0005834833178606461
0.005282814969434783 -0.0003131731452405045 -0.0006038832031452725
0.005335002710586338 -0.0001717281234406382 -0.0006159475582608713
0.005374512155841765 -5.350941573494225e-05 -0.0006208480414483951
0.005403729286673715 4.501294732951985e-05 -0.0006198312354442556
0.005424883775948794 0.0001268888534361164 -0.0006141777697426518
0.005440005456870743 0.0001947525814346187 -0.0006050840158362933
0.005451018866494994 0.0002509052542430608 -0.0005936609691933374
0.005459759982799692 0.0002973697570657903 -0.000580902453879079
0.005467927512767694 0.0003359052138225832 -0.0005677425815691837
0.005477100468100625 0.000368006847218908 -0.0005549666958081854
0.00548879098010607 0.0003949086320921108 -0.0005428746115829011
0.005504472439659607 0.0004176016138306312 -0.0005312509005077464
0.005525650504418386 0.0004368693801853447 -0.0005198079532161979
0.005553910993276805 0.0004533201901393279 -0.0005085919379852445
0.005590845238369593 0.000467404930285808 -0.0004979288940839204
0.005637976437931977 0.0004794224993478789 -0.000488258840149711
0.005696767045057147 0.0004895173342340637 -0.0004800515008348548
0.005768720328275702 0.0004976734522025839 -0.0004734392545836485
0.005855527721813762 0.0005037076429769679 -0.000467948721257346
0.005959120044334445 0.0005072616851663066 -0.0004627787315256231
0.006081671909207589 0.0005077931100552479 -0.0004573003084451676
0.006225611529765326 0.0005045643042659115 -0.0004513822999546069
0.006393574246584695 0.0004966206396833768 -0.0004451887473682748
0.006588404781613129 0.0004827437237334324 -0.0004386682004617931
0.006813271061379332 0.000461389197605399 -0.0004313384611136628
0.007071787055039202 0.0004306388905944839 -0.0004222836923389492
0.007368090665425477 0.0003881659057227598 -0.0004102345161531924
0.007706881266106034 0.0003311993468675838 -0.0003938365924572529
0.00809344750159155 0.0002564740530858878 -0.0003717474087696314
0.008533762235233817 0.0001601345549527032 -0.0003423181532305313
0.009034664732025433 3.759868248156248e-05 -0.0003035018209223375
0.009603966521049624 -0.0001165716186940428 -0.0002532132985146887
0.01025042769774124 -0.0003087904754041342 -0.0001892777657693557
0.01098381497225474 -0.0005465859165915698 -0.0001089658261673631
0.01181508604350701 -0.000838762241127441 -8.76500009817346e-06
0.0127565296065289 -0.001195557681077498 0.0001157084659813075
0.01382181561627204 -0.001628789172590897 0.0002697985533166573
0.01502606662370533 -0.002151996616405537 0.0004599680665920184
0.01638594392494227 -0.00278058587657746 0.0006940236876419748
0.0179196405973218 -0.003531943473767844 0.0009812533471399659
0.01964678394680076 -0.004425505518303727 0.001332558517021326
0.02158821538856723 -0.005482761075330587 0.001760740144415342
0.02376558262519739 -0.006727159278810946 0.002280808649812657
0.02620068528945048 -0.008183878965073757 0.00291027850729437
0.02891446511911689 -0.00987943684324763 0.003669579303774552
0.03192554058518149 -0.01184109400740998 0.004582389624285608
0.03524816737645575 -0.0140960478549715 0.005675929388752552
0.0388895029924697 -0.01667041341411369 0.006981139557198824
0.04284609231303629 -0.01958803611623464 0.008532551425981253
0.04709958552194923 -0.02286921399900882 0.01036781773328458
0.05161183860830785 -0.02652947813323402 0.01252664757257934
0.0563198137756083 -0.03057858114106959 0.01504901802283901
0.06113101286846177 -0.03501983663514025 0.01797255059650559
0.06592055760631975 -0.03984981245292597 0.02132902725229058
0.07053136158376581 -0.0450580400648194 0.02514028778548411
0.07477900331379168 -0.05062583202528626 0.02941399794432374
0.07846292397312672 -0.05652223605312644 0.03414008478289575
0.08138574749834507 -0.06269347875195463 0.03928889918552981
0.08338434968281758 -0.06903914332751189 0.04481225951172133
0.08438406889307892 -0.07536179702331545 0.05064906314760252
0.08451502605356852 -0.08126079994616399 0.05673978902219634
0.08442722909794313 -0.08589779415887229 0.0630682323246234
0.08633246380513654 -0.08743586108788989 0.06982326531604263
0.09822406155780448 -0.08160260322577068 0.07828504576663201
0.1563472995007889 -0.05846477154304297 0.09853042191572521
0.5176060910908219 -0.006943595679070515 0.2713953957981738
0.8552401963653236 -0.1030951889750427 -0.2468244858315718
0.3235901381815895 -0.1125805372623545 -0.0168115177203926
0.1749520810568567 -0.1035049761970576 0.01037546827956508
0.1082031294090476 -0.0905302432754606 0.01620351757111956
0.07177724796337133 -0.07810088181524473 0.01726779281049914
0.04957491143477812 -0.06717646661250724 0.01677888712937433
0.03506651364274555 -0.05778420505263039 0.01568526655509921
0.02516429204187735 -0.0497516632639688 0.01434582371784289
0.01823214138128125 -0.04288702340487217 0.01292428163028428
0.0133192602078158 -0.03701708443462615 0.01150655770146416
0.00983008137727351 -0.03199216743853876 0.01014151039522393
0.007368944151036285 -0.0276843567045509 0.008857396040301311
0.005661040372749795 -0.02398486327049914 0.007669704520035904
0.004509175889232895 -0.02080152829976559 0.006585558830829867
0.003768499556674987 -0.01805656188478923 0.005606495079556135
0.003330851256962381 -0.01568449002558106 0.004730335828606402
0.003114564159606286 -0.01363031481523321 0.003952534467611196
0.003057548161657117 -0.0118478742706441 0.003267073989465873
0.003112438512728711 -0.01029841127142414 0.002667158143322037
0.003243096666250177 -0.008949342754741787 0.00214563758940849
0.003422040647713197 -0.007773208183867605 0.001695321796099363
0.003628511184421085 -0.006746796165380192 0.001309198038518236
0.003847001832048432 -0.005850409517577478 0.0009805144836388736
0.004066129616307267 -0.005067260226645876 0.0007028838233735726
0.004277740568114015 -0.004382971097642081 0.0004703061053355299
0.004476218850050277 -0.003785168648249927 0.0002771466640492103
0.004657926489885638 -0.003263147294205071 0.0001181929660346821
0.004820752887531046 -0.002807599495654384 -1.13739804294772e-05
0.004963770069685112 -0.0024103935573876 -0.0001159980464978428
0.005086934351062269 -0.002064393947332406 -0.0001996488165075356
0.005190848646586478 -0.001763317367477408 -0.0002658751929548251
0.005276597918126085 -0.001501615584285856 -0.0003177167178865964
0.005345617942262714 -0.001274380384511923 -0.0003576315603336735
0.005399572214524958 -0.001077271076199399 -0.0003876967141697384
0.005440256633790596 -0.0009064551728934255 -0.0004095588771658773
0.005469537598915456 -0.0007585536001168921 -0.0004243442413788639
0.005489351651156027 -0.0006305886107102706 -0.0004329613727859394
0.005501670139552006 -0.0005199439440422472 -0.0004364306206188551
0.005508354809098023 -0.0004243286373893796 -0.0004358356699317554
0.005511126463633251 -0.0003417369640355116 -0.0004322068225179351
0.005511653758052439 -0.0002704034845490908 -0.0004265244464819464
0.005511543410167043 -0.0002087715404302458 -0.0004196757798670122
0.005512273118832238 -0.000155480236170627 -0.0004125005884723632
0.005515204311761713 -0.0001093570505414984 -0.0004057028648815774
0.005521640587864993 -6.941146318781749e-05 -0.0003995133009572412
0.005532868118047911 -3.482422842996637e-05 -0.0003936631314521833
0.00555022860544152 -4.92979233278044e-06 -0.0003878305659871395
0.005575160592425748 2.079631045375047e-05 -0.0003820441664170997
0.005609117806876726 4.274586464409332e-05 -0.0003766275130683618
0.005653487908932615 6.118341094242302e-05 -0.0003720333543818433
0.005709597031843409 7.62483259744258e-05 -0.0003687602578077218
0.005778809654047933 8.795629998861649e-05 -0.0003669818472028885
0.00586267087512412 9.61953578622891e-05 -0.0003662668602323348
0.005962955073012947 0.0001007156420403302 -0.0003658665959496607
0.006081669599591931 0.0001011172745839872 -0.0003652382278591515
0.006221062178444902 9.683810647215733e-05 -0.000364367821047917
0.00638356400447543 8.714046753867418e-05 -0.0003635492736398196
0.006571773786336064 7.108631994339521e-05 -0.0003628792319763714
0.006788568616599572 4.749955903926739e-05 -0.0003620627458917304
0.00703723913870389 1.493475465907478e-05 -0.0003604128915491678
0.007321570081170397 -2.835075063997791e-05 -0.0003569179590221473
0.007645870641643906 -8.44295287995275e-05 -0.0003505313806377363
0.008014983044902424 -0.0001557432577954867 -0.0003403008190228541
0.00843434528326794 -0.0002451599321060465 -0.0003250377441033983
0.008910157966409911 -0.0003560531946555201 -0.0003032184616812738
0.009449499116168842 -0.0004923846217439678 -0.0002733866709282714
0.01006030276847811 -0.000658779460490668 -0.0002341320085782358
0.01075140153598652 -0.0008606012158076614 -0.0001836254160490124
0.01153270522568759 -0.001104036759623685 -0.0001194073043985888
0.0124153547566361 -0.001396176433355609 -3.833500429580805e-05
0.0134117844308251 -0.001745077684387793 6.348781689993058e-05
0.01453580312547842 -0.002159810223145533 0.0001908499696080141
0.01580270464696534 -0.002650484167387177 0.0003496269439009544
0.01722930542461764 -0.003228237847215226 0.0005468970120848637
0.0188339105933402 -0.003905165438548964 0.0007910585127670177
0.0206361807651548 -0.004694166656277863 0.001092100951346248
0.02265684201708255 -0.005608692430315073 0.001461915103090496
0.02491717925359248 -0.006662352265312473 0.001914610670811159
0.02743820062179538 -0.007868366679464157 0.002466972478239105
0.03023936275221872 -0.009238835303085453 0.003138870574875368
0.03333671844714124 -0.01078382060247948 0.003953671890754908
0.03674033335729859 -0.01251026685551432 0.004938574732967327
0.04045084398205192 -0.01442081787233012 0.006124666634667199
0.04445511639819983 -0.0165126272952898 0.007546658377797202
0.04872110909520366 -0.01877635486023918 0.009242001128587599
0.05319234611343283 -0.02119552575109073 0.01124920558695706
0.05778280353594049 -0.02374645479744917 0.01360518386711987
0.06237354478067898 -0.02639880371219435 0.01634151832959237
0.06681300443733094 -0.02911651695201753 0.01947985895037288
0.07092331540798022 -0.03185834119812242 0.02302696086076041
0.07451554320406939 -0.03457616101230308 0.02697029769872177
0.07741759417605865 -0.03720802339822823 0.03127559436140104
0.07952188223327582 -0.03966061747576357 0.03588790643107416
0.08087122397221276 -0.04177251441339743 0.0407387366318392
0.08183812009858257 -0.04324313121120206 0.04576535105373447
0.08357184416690973 -0.04350194340048977 0.05096651294618839
0.08931534138250923 -0.04148891395623527 0.05660951760968237
0.1090251822402555 -0.03542962487776148 0.06427517098990575
0.1804544219827931 -0.02354866232200199 0.08498331694947957
0.5422185620463041 -0.01028800448513704 0.2581444935513996
0.8213438382101418 -0.06856021785129064 -0.2448253442216267
0.3209980549625018 -0.08642846701138379 -0.02262355568736089
0.1827729548731341 -0.08634819687310293 0.004994836569823796
0.11870999379614 -0.07955588044796676 0.01209031835563146
0.08217281582169994 -0.07078460586129166 0.01427802636328894
0.05899656296642057 -0.06200449053872511 0.01464070249908704
0.04333324942772888 -0.05393665840958249 0.01416601258962446
0.03232063739609756 -0.04678428055183212 0.01327172613267969
0.02439051747062022 -0.04054776577192725 0.01217005123496191
0.0186056603322179 -0.03515315958323271 0.0109825381897405
0.01436512335216916 -0.03050396188276283 0.009783564113439934
0.01126144573672831 -0.02650219499121143 0.008619616781285871
0.009006331710232116 -0.02305686675935055 0.007519239248177684
0.007389344953913271 -0.02008701868652423 0.006498908108233578
0.006253453856137436 -0.01752234070142104 0.005566854309456378
0.005479694122131024 -0.01530266764349377 0.004725677025194802
0.004977036614374506 -0.01337700226252686 0.003974223108562492
0.004675408391448851 -0.01170236642871573 0.003308874673490683
0.004520716474966618 -0.01024265405823186 0.002724520776996459
0.004471198588236231 -0.0089675658427924 0.002215189875657751
0.004494699537841746 -0.007851653421741203 0.001774507868938205
0.004566591798616357 -0.006873502739670114 0.001396024482289862
0.004668173639123779 -0.006015031935306277 0.001073374805446746
0.004785424251115442 -0.005260906753612499 0.0008004370909372056
0.004908010566347348 -0.004598056195391283 0.0005713984227751599
0.005028512376031608 -0.004015276779317596 0.0003807617066919579
0.005141793211227767 -0.003502905687532498 0.0002234215366499942
0.005244492300907438 -0.003052562057971566 9.465151800385555e-05
0.005334632176285553 -0.00265693401588129 -9.907916117713427e-06
0.005411281308065011 -0.002309607915377712 -9.414675361136604e-05
0.005474285070921831 -0.002004932155843309 -0.0001615338315274747
0.005524075679480551 -0.001737907578350809 -0.0002150333439194337
0.00556151934823947 -0.001504098289411911 -0.0002570348346148643
0.005587775346821163 -0.001299564390627396 -0.0002895464643034249
0.005604190330930027 -0.001120807230577438 -0.0003141468343745147
0.005612233241610799 -0.0009647208162377459 -0.0003319034719583792
0.005613486031300067 -0.0008285475085608472 -0.0003436786816676629
0.005609598021647792 -0.0007098465155502228 -0.0003504482119848776
0.005602143225759635 -0.0006064654908907875 -0.000353244058153003
0.005592594401839073 -0.0005165087123457871 -0.0003530498816251433
0.005582405790726879 -0.0004383019969792096 -0.0003508198792096619
0.005572989008525058 -0.0003703688174955846 -0.0003474255964160375
0.005565637806785801 -0.000311418242595794 -0.0003436852710581286
0.005561538078368511 -0.0002603334387579827 -0.0003402767685304665
0.005561826934770395 -0.0002161615993261872 -0.0003374093604377025
0.005567637470126308 -0.0001781051046709007 -0.0003348054704154952
0.005580169756663956 -0.0001455095853685793 -0.0003321489803885818
0.005600727673361552 -0.0001178581042302201 -0.0003294775818404495
0.005630636502860925 -9.476772338911683e-05 -0.0003271199705074712
0.00567115948969779 -7.598384930535714e-05 -0.0003255322715935136
0.005723501651899604 -6.137503557188135e-05 -0.0003252228544089695
0.005788907378690732 -5.092911208327427e-05 -0.0003263859659135093
0.00586879437312354 -4.475555613353352e-05 -0.000328616278417367
0.005964796809101863 -4.309705525010707e-05 -0.0003311995834493867
0.006078768691187867 -4.634521658716731e-05 -0.0003336515850275012
0.006212792822566383 -5.50543459576355e-05 -0.0003360270421246641
0.006369120906863314 -6.995158069102399e-05 -0.0003386749448839842
0.006550145360655697 -9.195313020422223e-05 -0.0003417462481640888
0.006758504844429562 -0.0001221932565188551 -0.0003450306734999809
0.006997224434591789 -0.0001620533154823668 -0.0003479553097898178
0.00726979428672958 -0.0002131906362768696 -0.0003496330622320263
0.007580194187536996 -0.0002775721435231046 -0.0003491660369826175
0.007932895039376435 -0.0003575099133503346 -0.0003457989212646614
0.008332904950253418 -0.0004557057589311454 -0.0003385720532513304
0.008785922291864371 -0.000575315113487847 -0.0003262139355672205
0.009298454412742973 -0.0007200148936973695 -0.0003075670731078544
0.009877803755176062 -0.0008940637698867344 -0.0002815819349066416
0.01053210589846634 -0.001102357157784351 -0.0002468529480615982
0.01127050666968246 -0.001350487941800402 -0.0002014201035947407
0.0121033296553816 -0.001644803408252213 -0.0001427328565302059
0.01304215713843075 -0.00199244424349181 -6.758477524873764e-05
0.01409993283259625 -0.002401358803100414 2.801767289911035e-05
0.01529110566948618 -0.002880294286213102 0.000149039973089356
0.01663172015660645 -0.003438742895658016 0.0003015366794918072
0.01813945558010109 -0.004086823362323949 0.0004927684195684463
0.01983358872585548 -0.004835076548038796 0.0007314825598784658
0.02173482709939727 -0.00569415215714712 0.00102824421175141
0.02386495318822768 -0.006674347229181362 0.001395790902417617
0.0262461642140517 -0.007784986679200442 0.001849543509275123
0.02889998620662619 -0.009033605662456213 0.00240810222338436
0.03184560430401472 -0.0104249308426997 0.003093776813258666
0.03509742302224301 -0.01195967394105906 0.003933069048997288
0.03866168172054461 -0.01363319234762487 0.004956905924266113
0.04253202487375454 -0.01543410757079435 0.006200557665979162
0.0466840699300675 -0.01734308251680254 0.007702910697275979
0.05106934310605605 -0.0193319670334635 0.009504860105730251
0.05560942046228152 -0.02136358800228394 0.01164656627903755
0.06019178458305956 -0.0233923897857803 0.01416339544292631
0.06466969237459215 -0.02536589125145414 0.01708068025088591
0.06886914494448554 -0.02722649332831842 0.0204078027128707
0.0726068585156056 -0.02891236220837311 0.02413264188397955
0.07572438757964056 -0.03035510588257911 0.02821798638665322
0.07814722776675206 -0.03147079381564152 0.03260196923794093
0.0799895047464283 -0.03213999362644132 0.03720565780053185
0.08176120468736706 -0.03217310126774103 0.04195507500382969
0.08484717846899222 -0.03126438880080542 0.04684438536166685
0.09280958947704003 -0.02897109725687666 0.05216045484194903
0.115678996730137 -0.02487663156089682 0.05955223353222377
0.1893439470845719 -0.0194599945810926 0.0799913706277371
0.5416941020957611 -0.0173010817877714 0.249186622396383
0.7837489780477355 -0.05063875753750536 -0.2413034290016151
0.311829291685688 -0.07195061151217091 -0.02798361014826995
0.1845513772416436 -0.07648848298580713 -0.0005941147064438179
0.1250788992307275 -0.07367453820789699 0.00747565602281104
0.09003339256947124 -0.0676369509827973 0.01076159009267739
0.06690951913600005 -0.06053087134811286 0.0120678868786543
0.05069168822804294 -0.05342681951938789 0.01233060337534195
0.03891212279132877 -0.04680768149358365 0.01198783826601877
0.03018214996643564 -0.04085499502120712 0.01128912074915267
0.02364243481022606 -0.03560282454566749 0.01039185517987308
0.01872221075548443 -0.03101695010785502 0.009399868254057251
0.01502176572423063 -0.02703481682559564 0.008382370585642143
0.01225016332316196 -0.02358544715443951 0.007384911714367576
0.01018982070491548 -0.02059911981518234 0.006436473719698204
0.00867499066725568 -0.0180117730397909 0.005554373328081848
0.007577890906827223 -0.01576666395776286 0.004747746341890569
0.006799275689134032 -0.01381463037755117 0.004020099944162589
0.006261754677956164 -0.01211365122296389 0.003371110142751652
0.005904898473931427 -0.01062810393372256 0.002797969924089551
0.005681558581996111 -0.009327926920336682 0.002296304153603331
0.00555505893595715 -0.008187788503984933 0.001860829301966571
0.005497010537046595 -0.0071863365966214 0.001485829930592621
0.005485599645996133 -0.006305528958758181 0.001165429075222562
0.005504239102298434 -0.005530062467729783 0.000893822008215453
0.005540482068425909 -0.00484689359767261 0.0006654008053548653
0.005585165245870322 -0.004244843055864178 0.0004748006268663098
0.00563171146789891 -0.003714267896920163 0.0003170023860961132
0.005675563990157502 -0.003246801985780121 0.0001873417127969751
0.005713746143165856 -0.002835142486704341 8.150764799889718e-05
0.005744485418209334 -0.002472878930200444 -4.347241292181751e-06
0.00576691311429351 -0.00215435664849897 -7.364616992090235e-05
0.005780849194946973 -0.001874567601838222 -0.0001293104757312411
0.005786628320856074 -0.001629059933531421 -0.0001736916728821218
0.005784941441071874 -0.001413871580307292 -0.0002087563901110699
0.005776719807196587 -0.001225474370311666 -0.0002360421995546727
0.00576306530554879 -0.00106072464728718 -0.0002565859132284115
0.005745230555101898 -0.0009168210183272224 -0.0002712325586722949
0.005724562868262576 -0.0007912760646470396 -0.0002809395345196067
0.005702364498581435 -0.0006818893633797171 -0.0002867047259829311
0.005679870434667383 -0.0005867163323278583 -0.0002894768584017453
0.00565832352288752 -0.0005040381898273707 -0.0002901947771656786
0.005638940186974085 -0.0004323429758134487 -0.0002897253332322799
0.005622832552032849 -0.000370312022646279 -0.0002888703379938134
0.005611017301223388 -0.0003168045067040594 -0.0002882823136672641
0.005604472934048687 -0.0002708445073665861 -0.0002881515996423426
0.005604185353217478 -0.0002316110266883559 -0.0002881983260468539
0.00561121425218809 -0.0001984282817603984 -0.0002881222119570578
0.005626725249573927 -0.0001707637772308885 -0.0002879795838659679
0.005651910097944825 -0.0001482266896033565 -0.0002881062346160647
0.00568790401199305 -0.0001305615601607281 -0.0002889564645169288
0.00573578933209484 -0.0001176419228734452 -0.0002910345095002244
0.005796690597340176 -0.0001094649398225019 -0.0002945421269107082
0.005871898221759921 -0.0001061534520040197 -0.0002990968444964372
0.005962904512218968 -0.0001079682180275837 -0.0003040223506233805
0.006071406656021754 -0.0001153243035370153 -0.0003088934462793935
0.006199318260676319 -0.0001288069652866698 -0.0003138253164309148
0.006348710672837265 -0.0001491821038237172 -0.0003192014292829781
0.006521776228884137 -0.000177408023767252 -0.0003252041046652298
0.006720925874059496 -0.0002146595725341733 -0.0003316840597965046
0.006948929387394631 -0.0002623562253226507 -0.0003381592523119834
0.007208989976890044 -0.0003221943419106179 -0.0003438490682857177
0.007504764986787256 -0.0003961834335712015 -0.0003479834404832655