# OOMMF: rectangular mesh v1.0
# Segment count: 1
# Begin: Segment
# Begin: Header
# Title: 
# Desc: time = 1.4475006028878018e-10
# Desc: stepsize = 4.3282976763063884e-13
# Desc: step = 300
# meshunit: m
# valueunit: (none)
# valuemultiplier: 218535.2488858704
# xmin: 0
# ymin: 0
# zmin: 0
# xmax: 4e-07
# ymax: 1e-07
# zmax: 4e-09
# ValueRangeMaxMag: 1
# ValueRangeMinMag: 0.003880231918453133
# meshtype: rectangular
# xbase: 2e-09
# ybase: 2e-09
# zbase: 1e-09
# xstepsize: 4e-09
# ystepsize: 4e-09
# zstepsize: 2e-09
# xnodes: 100
# ynodes: 25
# znodes: 2
# End: Header
# Begin: Data Text
0.8319277533330359 -0.5366276453438926 -0.1411629678312157
0.2493862799609222 -0.3662883390617372 0.06761685601565569
0.1170941887690474 -0.2942840250324757 0.08225246064639735
0.06288701374286074 -0.2486131842075018 0.07894506880932715
0.0348675327988112 -0.2132181425927947 0.07215411854253602
0.01870509496242163 -0.1836353100200137 0.06463437589706031
0.008873423491943536 -0.1582337840337826 0.05722396744529262
0.002775162982905326 -0.1362168560950572 0.05023722185323781
-0.0009787845096052325 -0.1170757462593441 0.0437965829441939
-0.003200634202523078 -0.1004225433414703 0.03794014369759896
-0.004396447780085521 -0.08593495192541781 0.03266471042743342
-0.004896461496974602 -0.07333614331944222 0.0279459837375796
-0.00492368942666719 -0.06238585953872075 0.02374918637463534
-0.004632618042939726 -0.05287508632912955 0.02003495554143596
-0.004132259718866456 -0.04462193357123507 0.01676258920223939
-0.003500536264992816 -0.03746810007758118 0.01389184436067335
-0.002793590974315783 -0.0312757381745589 0.01138401652133282
-0.002052025797179704 -0.02592467759766886 0.009202593138831998
-0.001305177841780152 -0.02130999252223415 0.007313556778110207
-0.0005740633314990858 -0.01733987236843847 0.005685479188002614
0.000126559546127434 -0.01393377664782303 0.004289511106032608
0.0007866711873227979 -0.01102086378097189 0.003099380558684339
0.001399859096605391 -0.008538693104824864 0.002091086129384734
0.0019624828506619 -0.006432189309924624 0.001242606202342422
0.00247301233632197 -0.004652780319320364 0.0005339488889853542
0.002931479781770651 -0.003157587066457407 -5.272812473494075e-05
0.003339060942241746 -0.001908732528021629 -0.0005333465013192672
0.003697814479123162 -0.000872765365776279 -0.0009222476058412045
0.004010472557437839 -2.013289307225206e-05 -0.001232165019464173
0.004280215601052124 0.0006752725772168131 -0.001474408530473872
0.00451052308897223 0.001236462364287049 -0.001659200262576111
0.004705056295962927 0.001683618042445361 -0.001795710558859253
0.004867506641494773 0.002034394444633929 -0.001891882707714921
0.005001482249217959 0.002304196052103686 -0.001954568437497676
0.005110482536780539 0.002506400647600731 -0.00198977964949042
0.005197870876067531 0.002652623920360797 -0.002002513960197679
0.005266829890078204 0.002752957526679933 -0.001996995178536723
0.005320394964147456 0.002816127430107462 -0.001977049606325911
0.005361458364939883 0.002849644692179369 -0.001945963032414269
0.005392721355837854 0.002859946534299242 -0.001906618321218511
0.005416706109868422 0.002852497230242896 -0.001861664125476408
0.005435752853162307 0.002831875479133397 -0.001813357902511423
0.005451996095740741 0.002801909324782321 -0.001763555719532275
0.005467398016554069 0.00276577734986177 -0.001713781701336457
0.005483788607773082 0.002726077775446823 -0.001665212346558116
0.005502896248817086 0.002684951602608583 -0.001618627377889143
0.005526402484588696 0.002644117131280307 -0.001574547957134498
0.005555996905930392 0.002604880872568867 -0.001533313463532021
0.005593410825001989 0.002568186508136507 -0.001494974382784668
0.005640441908730791 0.002534565736712686 -0.001459477673842626
0.005698987602559911 0.002504125292135388 -0.001426690512727528
0.005771052476501941 0.002476560591844124 -0.001396258690107111
0.005858748956006551 0.002451104455552972 -0.001367799039316524
0.005964332522427043 0.002426544502575468 -0.001340848932556718
0.006090217499323329 0.002401235592053597 -0.001314719615936544
0.006239010446230798 0.002373044788808109 -0.001288620879306189
0.006413588689498446 0.00233934029156573 -0.00126152510332009
0.006617169453110215 0.002296925129288002 -0.001231971562994187
0.006853390113062982 0.002241883665181479 -0.001198101146135145
0.007126418108370586 0.002169466147279163 -0.001157537550008804
0.007441044639926616 0.002073903637062418 -0.001107218562244433
0.007802749149490475 0.001948174250847811 -0.00104347890858307
0.008217798001532686 0.001783826873890142 -0.0009620755774300038
0.008693327700380882 0.001570740615324972 -0.000857982379346595
0.009237396025409085 0.001296853072027825 -0.0007254365431225905
0.009859121045430226 0.000947887938381143 -0.0005578731353564577
0.01056882182174082 0.0005069856414462511 -0.000347391329622989
0.01137813234648797 -4.576200684815011e-05 -8.45858228609339e-05
0.01230020370455802 -0.0007338361056383087 0.0002416765409255025
0.0133498717534461 -0.001584868064435122 0.0006449000055606796
0.01454373441254435 -0.002631315243188689 0.001141168042456093
0.01590023638611001 -0.003911122458968551 0.001749236548102901
0.01743970396144233 -0.005468348689774084 0.002491060970802146
0.01918425392737177 -0.007353865617942918 0.003392344235223116
0.02115761924167257 -0.009626052231602639 0.004482845288490142
0.02338490493504386 -0.01235141159763903 0.005797032856881931
0.02589210014616588 -0.01560514740840488 0.007375071083447537
0.02870521414468433 -0.01947159618249873 0.009263265371095781
0.03184903924692349 -0.0240443094585067 0.01151426133224188
0.03534539746350715 -0.02942565546948057 0.0141874316916365
0.03921068521746589 -0.03572588797184668 0.01734902421335224
0.04345270762031521 -0.04306158696974053 0.02107174526773313
0.04806684214155646 -0.05155334634286241 0.0254338538795189
0.05303152544074505 -0.06132264348694084 0.03051785626524604
0.0583032080179424 -0.07248795059755805 0.03640822539687397
0.06381119790903324 -0.08516011113103873 0.04318776767147996
0.06945316182718385 -0.09943708334413784 0.05093285876514565
0.07509227723581971 -0.1153983125835854 0.05970799251467099
0.08055708589471956 -0.1330988429418275 0.06955993605419117
0.08564493673080237 -0.152562872191791 0.08051206992205207
0.0901292871507101 -0.1737755161578373 0.09255975866812956
0.09377020290156736 -0.1966697076264129 0.1056674992660921
0.09632684384682673 -0.2211014846773846 0.119768588723413
0.09757189536898996 -0.246798740541104 0.1347675368311169
0.0973159398042092 -0.273247126300625 0.150545540950403
0.09548377714039312 -0.299413245970829 0.1669745302296281
0.09243710016065756 -0.3229786666737625 0.1839805814703388
0.09061044225394566 -0.3377340984244069 0.2019687132725026
0.1059724180748291 -0.3212786598918201 0.2262938599725197
0.3332972789437116 -0.1327624476773341 0.3580899142673455
0.8787423559876543 -0.1881585057090988 -0.2413573646682279
0.3096518595083877 -0.171414510073916 -0.007111844369354405
0.1561739870264872 -0.1425738352064636 0.01809122180344207
0.09144738975846789 -0.1193135903958354 0.02221148589881302
0.05764295623494872 -0.1010308366259202 0.02205784582407968
0.03767892922054778 -0.08617323536383913 0.02066689584982186
0.02499915132654836 -0.07378991911637245 0.01887202848636735
0.0166036777008574 -0.06332043213892023 0.01696958737303215
0.01092873078555845 -0.05440122576364859 0.01508758609340223
0.007073625277511773 -0.04677030929711924 0.01328914755331599
0.004478591901390179 -0.04022409669493859 0.01160699428822898
0.002775283456243184 -0.03459738646815286 0.01005716740511535
0.001710839382994098 -0.02975318436768038 0.008645711371975421
0.001106239705474385 -0.02557673618376967 0.007372435714290407
0.0008318954793907457 -0.02197146794790859 0.006233131227064907
0.0007924998596174552 -0.01885589959928399 0.005220967628715014
0.0009171933436081594 -0.01616116039378511 0.004327527434185489
0.001152914628227283 -0.01382892190959111 0.003543601236411002
0.001459786058687146 -0.01180966525601887 0.002859721153392102
0.001807880635651743 -0.01006122543644262 0.002266533480120284
0.002174899351348258 -0.008547571812015148 0.001755050077938796
0.002544416205157994 -0.007237802764684411 0.001316863643953046
0.002904535582204909 -0.006105316330128359 0.0009440057386264443
0.003246887365869125 -0.005127134853506275 0.0006288135900584644
0.003565853894637746 -0.004283350556989619 0.0003641574796455188
0.003857934461813189 -0.00355666229051461 0.000143719474955818
0.004121238788635498 -0.002931984449827141 -3.810653095123736e-05
0.004355158459633697 -0.002396125920448288 -0.0001864346417210983
0.004560097132659586 -0.001937523609250301 -0.0003057513583832549
0.004737181977579726 -0.001546022768530162 -0.0004000440801863276
0.004888059367987727 -0.001212698249861172 -0.0004730771828685224
0.00501475108767368 -0.0009297094732394184 -0.0005283355128310369
0.005119492506578606 -0.0006901728727179285 -0.0005687764696598666
0.005204598660578368 -0.0004880491981124233 -0.0005968980904336865
0.005272429850814686 -0.0003180421292805126 -0.0006149067069529205
0.005325358347624592 -0.0001755083491519472 -0.0006244629607521305
0.005365694282061331 -5.637845902407389e-05 -0.0006268902660236124
0.005395695925566985 4.290813998640421e-05 -0.0006235275536434656
0.005417562580694555 0.0001254560926149963 -0.0006155390095089401
0.005433372106561979 0.0001939576229743706 -0.0006040485255400981
0.005445084830586737 0.000250734443679282 -0.0005902732817408345
0.005454544969443572 0.0002977756107926038 -0.0005752894809144296
0.005463458627468721 0.0003367762747448807 -0.0005599938547062342
0.005473415463541798 0.0003691762252459785 -0.0005451201363930192
0.005485927115670319 0.0003961925097034946 -0.0005311739129751197
0.005502446727763523 0.0004188456066078281 -0.0005183823722339915
0.005524398264777386 0.0004379782661290608 -0.0005068159211667468
0.005553227351422379 0.0004542647256886474 -0.0004964622653842361
0.005590420276303197 0.0004682121761138842 -0.0004871390416922047
0.005637515296766724 0.0004801575816558628 -0.0004786805905352086
0.00569614549478169 0.0004902615356073167 -0.0004709738871195508
0.005768041102434326 0.0004985012520251183 -0.0004638405098947069
0.00585503285952146 0.0005046671493710389 -0.0004572243897790286
0.005959098044014345 0.0005083604008300929 -0.0004511437318512125
0.006082363419011819 0.0005089883644333692 -0.000445549601192874
0.006227130545499021 0.000505757424123435 -0.0004404396761012288
0.006395946067264628 0.000497659454453237 -0.0004357298671321623
0.006591637157471616 0.0004834456354569105 -0.0004310606570161573
0.006817371847142378 0.0004615839536928129 -0.0004258589519513158
0.007076757231523853 0.0004302077614237205 -0.0004192770916952243
0.007373905216666345 0.0003870511463416029 -0.0004100616836507394
0.007713491762256463 0.0003293732127088656 -0.0003967292224258511
0.008100855209584236 0.0002538809359696166 -0.0003777052559165188
0.008542060303288228 0.0001566478593091568 -0.0003511756403932039
0.009043934179593448 3.302314066418675e-05 -0.0003152418309318514
0.009614181303027498 -0.0001224690314412649 -0.0002679851741656137
0.01026148020909556 -0.0003162481573097015 -0.0002069999349267828
0.01099555083602811 -0.0005558156532639272 -0.0001293510011790086
0.01182732546871093 -0.0008499150867811385 -3.154589897508157e-05
0.01276908895658271 -0.00120870516997073 9.092765082362849e-05
0.01383454141049437 -0.001643932195871991 0.0002436019535439165
0.01503890096745426 -0.00216908939240281 0.000432838864636593
0.01639895450904549 -0.002799559506838691 0.0006660721535898377
0.01793298014648861 -0.003552720306613612 0.0009521287577461478
0.01966061758584843 -0.004448003455907846 0.001301274856839434
0.02160269158468314 -0.005506892914761683 0.001725594783295419
0.02378082636446706 -0.006752837878242034 0.002239758824819786
0.02621676577740081 -0.008211029556880899 0.002861280211096638
0.02893140331471568 -0.009908008127070295 0.003610577459597222
0.03194334827318555 -0.0118710615263366 0.004511350775261059
0.03526681883148192 -0.01412740336411009 0.005590945808372149
0.03890883803117728 -0.01670314250948003 0.006880403760744979
0.04286574780463456 -0.01962209132765074 0.008414294192634368
0.04711897774733166 -0.02290449626640297 0.01023047992816721
0.05163017208947286 -0.02656583703657684 0.01236922659249235
0.05633608593567298 -0.03061583049307567 0.01487122913777046
0.06114402009239737 -0.0350577737718531 0.01777471514800842
0.06592891645740225 -0.03988823556454935 0.02111194867198982
0.07053355656415676 -0.04509676552870299 0.02490522179070728
0.07477349363431275 -0.05066471657238977 0.02916271464015184
0.07844831021562858 -0.05656120556509214 0.03387495468454639
0.08136093905328015 -0.06273255332879889 0.03901276982258897
0.08334867402523012 -0.06907844660993169 0.04452812736051413
0.08433727995746701 -0.07540155388546368 0.05035965173933041
0.08445714616063681 -0.08130135033663279 0.05644717979674876
0.08435812018163882 -0.08593968141227482 0.06277355595801076
0.08625059946338723 -0.08748011869945219 0.06952640374186976
0.0981225331453237 -0.08165149831193666 0.07798427615858788
0.1561972463012803 -0.05852326394717572 0.09822139020461543
0.5172374765445235 -0.007018771198378514 0.2710394386528095
0.854827753146634 -0.1031268475659603 -0.24751409663911
0.3234093243311919 -0.1126579240171117 -0.0177104514271407
0.1748560425047654 -0.1036005392502223 0.009546523961329621
0.1081454003261053 -0.09062830992837796 0.01547556593517312
0.07173812439373745 -0.07819348573424294 0.01663615220791239
0.04954514631934153 -0.06726030049804696 0.01623195637061899
0.03504154803503215 -0.0578584267502236 0.01521115017023959
0.02514183246136961 -0.04981663082125521 0.01393405950790208
0.01821105757563191 -0.04294361681487604 0.01256617751651618
0.01329904401552695 -0.03706635241372148 0.01119501555475779
0.009810563684588479 -0.03203515073296809 0.009870684684042584
0.007350114306570732 -0.02772200864806185 0.008622340456303008
0.005642923537917984 -0.02401802315631764 0.007466200453306979
0.004491782321570788 -0.02083092107668666 0.006410076211484094
0.003751833992506968 -0.01808280676802078 0.005456104541403389
0.003314928489209057 -0.01570811117017368 0.00460251698700647
0.003099421613436817 -0.01365175330081017 0.003844954473907947
0.003043224853216555 -0.01186750078949133 0.003177484277201118
0.003098929736377906 -0.01031653680200886 0.002593314999826314
0.003230343191697448 -0.008966225724206873 0.002085317211156765
0.003409958886165288 -0.007789057713105393 0.001646377982373514
0.003617021741971973 -0.0067617718470407 0.001269682602745474
0.003836029357134158 -0.005864620023904584 0.0009486307643460405
0.004055595472285156 -0.005080763352169857 0.0006767486917795833
0.00426757127048935 -0.004395780661808238 0.0004479413531275386
0.004466327959839114 -0.003797265374239971 0.000256792615672635
0.00464818198136157 -0.003274487995207414 9.850385197355338e-05
0.004811004899209778 -0.002818125248789822 -3.129677390464213e-05
0.004953902637684011 -0.002420040563709382 -0.0001364238866924028
0.005076887433242888 -0.002073105024707891 -0.0002202661627630057
0.005180639105724287 -0.00177105144661371 -0.0002860432314986055
0.00526633326185711 -0.001508358482815982 -0.0003367473588024057
0.005335463055464584 -0.001280154545549618 -0.0003749137555213937
0.005389694154488162 -0.001082136518186546 -0.0004026707078511803
0.005430816717201715 -0.000910498762733349 -0.0004218811498656279
0.005460700894483551 -0.0007618763859564898 -0.0004338997936975404
0.005481214507232785 -0.0006332942529964071 -0.0004397818297045507
0.005494221444878111 -0.0005221224070174711 -0.0004406250222399119
0.005501564568831527 -0.0004260424710398507 -0.0004373959998159743
0.005505000537491991 -0.0003430202361579728 -0.0004310733512199256
0.005506200668465019 -0.000271277589186715 -0.0004227583572507662
0.005506749200149895 -0.0002092697769923661 -0.000413432002362087
0.005508122421694719 -0.0001556631312960166 -0.0004039213415901168
0.005511708389834639 -0.0001093109307411686 -0.0003948937856679189
0.00551883925901862 -6.923299032306255e-05 -0.0003867862492938301
0.005530806631623145 -3.460189691416629e-05 -0.0003797719314723449
0.005548885157869956 -4.729599911539465e-06 -0.0003738674921782517
0.005574374853845322 2.093931768787422e-05 -0.0003690098113600047
0.005608616332763655 4.282725403872256e-05 -0.000364992913236434
0.005652999801253424 6.122462312429836e-05 -0.0003616427052620675
0.00570900427463628 7.628618581303767e-05 -0.0003588560019961317
0.005778201969621566 8.802539937466912e-05 -0.0003565008248416856
0.005862262978046265 9.631333560692574e-05 -0.0003545866696083349
0.005962999099400819 0.0001008734881659797 -0.0003532155604234299
0.006082366705812157 0.0001012750375144899 -0.0003524504692027509
0.006222488357089542 9.69281912327353e-05 -0.0003524135801045162
0.006385714688200469 8.707255295320568e-05 -0.0003531595433231851
0.006574649856894633 7.075644929666556e-05 -0.0003544866379778939
0.006792201564762109 4.681044928055684e-05 -0.0003560022444657468
0.007041670665780985 1.381397510755444e-05 -0.0003570740184379292
0.007326807798090704 -2.994898850707188e-05 -0.0003566948832461043
0.00765186659569987 -8.653888950966236e-05 -0.0003536804268974661
0.008021701279719828 -0.0001584109023352084 -0.0003468304194803071
0.008441825979690357 -0.000248468533823452 -0.0003347701867754573
0.008918442016343703 -0.0003601240975037072 -0.0003161296493693333
0.009458545624525774 -0.0004973610642513939 -0.0002896367851120371
0.01007001359663644 -0.0006648047500330052 -0.0002536488088077121
0.01076165560083127 -0.0008678018382100411 -0.0002061198383197702
0.01154337585879094 -0.001112506273207449 -0.0001446083372063625
0.0124263158498487 -0.001405965205042496 -6.584793701153005e-05
0.0134229283093543 -0.001756194532733823 3.425157549989731e-05
0.01454709883558777 -0.002172234591672005 0.0001603889739666148
0.01581423155527568 -0.002664181163704354 0.0003180544783822163
0.01724122192882987 -0.003243165973142089 0.0005138420850599769
0.01884638744602587 -0.003921277379594821 0.0007555026322885504
0.02064937057271838 -0.004711408961745305 0.0010522970433793
0.02267086809438453 -0.005627008473017348 0.001415745810111664
0.02493210371193633 -0.006681684705044045 0.001859922302306726
0.02745403528453541 -0.00788865670040808 0.002401589026170579
0.03025611401161107 -0.00926001989995255 0.003060636010627431
0.03335436754752575 -0.01080582504033674 0.003860541177156162
0.03675874601331973 -0.01253299169269584 0.00482858506111779
0.04046970005113043 -0.01444412328811432 0.00599589142099742
0.04447387988005271 -0.01653632433084144 0.007397398740750833
0.04873902169852483 -0.01880021042623765 0.009071143245445704
0.0532084219076013 -0.02121927948698305 0.01105639252910171
0.05779583095079775 -0.02376984337769528 0.01339071237143516
0.06238210498427621 -0.02642159126556595 0.01610622038501732
0.06681551580375729 -0.02913853070429485 0.01922507088529743
0.07091813821789897 -0.03187951086872982 0.02275458557526633
0.07450115119467175 -0.03459655710754742 0.02668289236782367
0.07739275664911384 -0.03722788307392269 0.03097624420523013
0.07948579276495506 -0.03968034974081264 0.03557988226337257
0.08082351631393128 -0.04179268726681001 0.04042504754385616
0.08177868507228549 -0.04326445875009399 0.04544833922993311
0.08350031578375426 -0.04352530913192262 0.05064749660247119
0.08922967855495903 -0.04151548379043365 0.05628842934614836
0.1089173680254618 -0.03546108670582607 0.06395012801979594
0.1802939548960613 -0.0235874792609396 0.08464958145724961
0.5418336910892174 -0.01033819843988354 0.2577623408658227
0.8208751012719611 -0.06857994542735138 -0.2455091490801671
0.3207907515439322 -0.08648035203037259 -0.02353414786812424
0.1826660367045934 -0.08641649647436972 0.004143604491811821
0.1186513788241288 -0.07963050144846474 0.01133387040943596
0.08213830509962929 -0.07085873803981002 0.01361519106312193
0.05897391521101204 -0.06207422278539468 0.01406226716551784
0.04331614983004049 -0.05400016195824273 0.0136615748831832
0.03230585006643325 -0.04684102361964609 0.01283168551469279
0.02437645931694999 -0.04059794349939047 0.0117861557536418
0.01859165067940482 -0.03519732667330897 0.01064785926477716
0.01435097261639419 -0.03054281234201421 0.009492256171629082
0.01124719700843541 -0.02653643964902839 0.008366627884364717
0.008992092538923031 -0.02308717291621095 0.007300176618370761
0.007375213783678065 -0.02011398626189391 0.006310027813821909
0.006239521368370611 -0.01754649562526571 0.005404998044097734
0.005466055200019766 -0.01532446186381894 0.004588098175630554
0.004963800132041903 -0.01339681822787793 0.003858369650745855
0.004662675458035594 -0.01172052422440945 0.003212282244616553
0.004508536418852113 -0.01025941888705842 0.002644735743612931
0.004459560494513631 -0.008983154441075447 0.002149796124828906
0.004483564773606685 -0.007866239312514095 0.001721195386395267
0.004555924696554786 -0.006887219475744482 0.001352706896077036
0.004657942750326272 -0.006027974508946353 0.001038142809998898
0.004775592418874412 -0.005273131905909874 0.000771327343187279
0.004898537549335881 -0.004609587927867476 0.0005463754674930408
0.005019335519323697 -0.004026115866971255 0.000358008257092468
0.00513279722694086 -0.003513036704052745 0.0002015325450976464
0.005235536569735747 -0.003061958091308421 7.268463340549647e-05
0.00532560034801343 -0.00266556362319124 -3.224771311756536e-05
0.005402104554385778 -0.002317443132497468 -0.0001165631566394778
0.00546496420353388 -0.002011953967075338 -0.0001833872381323274
0.005514693281482914 -0.001744112266880912 -0.0002356197882975773
0.005552209541559635 -0.001509505078609446 -0.0002757309389998058
0.005578679059504423 -0.001304217361949631 -0.0003057905765249197
0.005595452877090882 -0.001124768144249976 -0.0003275842176768355
0.00560401113962902 -0.0009680626000126494 -0.0003423985836861292
0.005605877170568882 -0.0008313494081050709 -0.000351237330493078
0.005602606839615212 -0.0007121824486523841 -0.0003551446011625622
0.005595762640912345 -0.0006083927209215829 -0.0003550484085555393
0.005586847849166006 -0.0005180659004919244 -0.0003519114086760019
0.00557730432588715 -0.0004395174616403741 -0.0003468179689807208
0.005568505819913834 -0.0003712735582588624 -0.0003407339097225488
0.00556173862613661 -0.0003120547476672435 -0.0003344888104126703
0.005558221108521393 -0.0002607561950572331 -0.0003287462981071187
0.005559130080475786 -0.0002164315670541077 -0.0003239252612826338
0.005565614413414429 -0.0001782834158992558 -0.0003201870706360735
0.005578816565144121 -0.0001456507095554047 -0.0003175242097302819
0.005599907085453448 -0.0001180019995681045 -0.0003158392793639186
0.005630098120572229 -9.493548826136204e-05 -0.0003149129130409659
0.005670651755518352 -7.617611123540267e-05 -0.0003145669047234353
0.005722914262634762 -6.157687780471609e-05 -0.0003147069610098526
0.005788322180214767 -5.112497103524186e-05 -0.0003152381826710313
0.005868406714770819 -4.494319908400755e-05 -0.0003162134473648069
0.005964833857156614 -4.32957468165267e-05 -0.0003177893870032964
0.006079409134336817 -4.659620860508067e-05 -0.0003200988035177465
0.006214095443167438 -5.541238469993694e-05 -0.0003233244032683369
0.00637106735942015 -7.048044241305932e-05 -0.0003275876336385587
0.006552733002337234 -9.272436773053888e-05 -0.0003327647287233364
0.00676177666538228 -0.0001232763794260877 -0.0003385414561212743
0.007001240351532331 -0.0001635064841486909 -0.0003443856246729197
0.007274575686248845 -0.0002150605840106828 -0.0003494086264358573
0.007585692569656789 -0.0002798999317925996 -0.0003525651338439881
0.007939054420471825 -0.0003603436830516967 -0.0003528327177145551
0.008339734299127396 -0.000459116923362779 -0.0003490439349630373
0.008793437749391701 -0.0005794027153356457 -0.0003400756626560578
0.009306607443287384 -0.0007248918790642063 -0.0003249591917540669
0.009886503703086578 -0.0008998408881695914 -0.0003024137572998701
0.01054125201197916 -0.001109133788971347 -0.0002708195638789125
0.01128000390418979 -0.001358342519480742 -0.0002282379887917941
0.01211308762561489 -0.001653784647249866 -0.0001720071338257966
0.01305209911392151 -0.002002569891720836 -9.873355956777079e-05
0.0141100474866028 -0.00241262344323494 -4.504766435279887e-06
0.01530148173247875 -0.002892680460628605 0.0001152552191353053
0.01664252224774584 -0.003452226140083386 0.0002661033884222599
0.01815086173752345 -0.004101372236640029 0.0004546539268470012
0.01984575852075822 -0.004850652323274024 0.0006889246330368866
0.02174788942952559 -0.005710708510622851 0.0009790832562780311
0.02387897760824879 -0.006691827676350849 0.001337790241831028
0.02626117389046456 -0.007803319416109162 0.001780425867267329
0.02891600341270486 -0.009052699239873296 0.002325602530228542
0.0318626342393307 -0.01044466900527774 0.002995721339850863
0.03511536777468979 -0.01197990580823007 0.003817342299554671
0.03868026843504321 -0.01365372039156705 0.004821418263304986
0.04255076624774774 -0.01545468038262891 0.006043450478269164
0.04670224544683347 -0.01736339799674793 0.007522919772765474
0.05108598294847127 -0.01935168716992797 0.0093014984148353
0.05562329862174461 -0.02138236443672339 0.01142003348644163
0.06020142887944579 -0.02340989986415972 0.01391446997237219
0.06467342257898752 -0.02538188385793397 0.01681068902106245
0.06886517645352466 -0.02724084058010377 0.02011868165544282
0.07259348321339794 -0.02892510970667789 0.02382702636945607
0.07570017486583198 -0.03036651113901861 0.02789908887210568
0.07811117852518847 -0.03148134197515984 0.03227322989221493
0.0799410866543236 -0.03215038631774208 0.03687027712890958
0.08170016764433566 -0.03218422729003591 0.04161557532861043
0.08477300547237752 -0.03127729772021905 0.04650220759790727
0.09272000621994959 -0.02898700351254389 0.05181555189419874
0.1155655875591593 -0.02489697364284187 0.05920263202398068
0.1891754553694063 -0.01948665711126163 0.07963227968217898
0.541293194758936 -0.01733849212885697 0.2487781696525048
0.7832432555788191 -0.05065226825176725 -0.2419745240569958
0.3116020047078147 -0.07198578630860929 -0.0288947530427512
0.184432721915563 -0.07653768076605219 -0.001457644028697375
0.1250155328119439 -0.07373201774445187 0.006697974371668011
0.08999923925154785 -0.06769750767432235 0.01007208328480492
0.06689036989177988 -0.06059060642727448 0.01146030808298253
0.05067968196763585 -0.05348328924460537 0.01179669418182308
0.03890298402008156 -0.04685963120211685 0.01151940396562931
0.03017367126521518 -0.04090199366297029 0.01087875329620751
0.02363360298247145 -0.03564494650338551 0.01003307537971885
0.01871269073936175 -0.03105454319505141 0.009087014764522125
0.01501156468958651 -0.02706835046868517 0.008110401303511511
0.01223940983627373 -0.02361542287827217 0.007149327430955064
0.01017866052894675 -0.02062602345991034 0.006233350414794208
0.008663573626604384 -0.01803605061359325 0.005380332635473996
0.007566374711832508 -0.01578870941196595 0.004599808103818123
0.006787829856745983 -0.01383478207539519 0.003895478308132559
0.006250535881481165 -0.01213219369932262 0.00326710901953125
0.005894005742441534 -0.01064527205028749 0.002711913119405233
0.005671025242470316 -0.009343910543301521 0.002225574178716934
0.00554488560730169 -0.008202737413547137 0.001802945306543628
0.005487197122986422 -0.007200365452566113 0.001438558590474959
0.005476148993724103 -0.006318720776331384 0.001126737021689102
0.005495146144794801 -0.005542469923950174 0.0008616547284758709
0.005531731362831836 -0.004858543809545179 0.0006376573245265215
0.005576710849041106 -0.004255746191651794 0.0004495983333736295
0.005623450056470901 -0.00372442281659933 0.0002928679826164173
0.005667362386433486 -0.003256199101382565 0.0001632827688821446
0.005705488561635736 -0.002843768388603813 5.720222915667619e-05
0.00573609752787034 -0.002480722539685839 -2.861647637249917e-05
0.005758385801503237 -0.002161412883965192 -9.72412450816357e-05
0.005772248763560514 -0.001880841333814956 -0.0001515134457766703
0.005778067705971029 -0.001634572649298285 -0.0001938675013184155
0.005776544060526311 -0.001418663668584928 -0.0002263404747846492
0.005768620070341956 -0.001229598950013749 -0.0002506644776080019
0.005755410891843796 -0.001064244049732345 -0.0002680874567180262
0.005738116371035176 -0.000919805525186665 -0.0002795933654670072
0.005718002264858434 -0.0007937941327602052 -0.0002861970889774914
0.005696365431256079 -0.0006839977890398648 -0.0002888041330117962
0.005674468101520606 -0.0005884601820820763 -0.0002883734096728636
0.00565353325063123 -0.0005054557122633618 -0.0002859826438719033
0.005634732019143859 -0.0004334701568165835 -0.0002825932418422135
0.005619165531278178 -0.0003711862394608175 -0.0002790489929709471
0.005607884728920581 -0.0003174657729890015 -0.0002760182629832306
0.005601910436527642 -0.0002713346645519747 -0.0002739056290069917
0.005602246145840616 -0.0002319753813943374 -0.0002728626950516831
0.005609899343168545 -0.0001987146682230485 -0.0002728595355642024
0.005625908943645378 -0.0001710151037908094 -0.0002737661888927781
0.005651357861980491 -0.0001484744551088809 -0.0002753509644566978
0.005687381169011871 -0.0001308212482328433 -0.0002774282917785323
0.005735194259010664 -0.0001179142688752444 -0.0002799079508099635
0.005796099865908048 -0.0001097490087739969 -0.0002827282057240955
0.005871491924182349 -0.0001064590886395806 -0.0002859786646431148
0.005962891050188313 -0.0001083216172899284 -0.0002898652782439619
0.006071951123209982 -0.0001157669408476722 -0.0002945844668771517
0.006200472723189831 -0.0001293861663070213 -0.0003003665295418179
0.006350450717623277 -0.0001499468996534388 -0.0003073902338272764
0.006524096379810125 -0.0001784117784688706 -0.0003156004602291261
0.006723872842387854 -0.0002159571366565778 -0.0003247378294935395
0.00695256818062458 -0.0002640019640302792 -0.0003343442010913809
0.007213346017719874 -0.0003242425819670062 -0.0003436280761634227
0.007509789507448434 -0.0003986867315092279 -0.0003516494954367094