# OOMMF: rectangular mesh v1.0
# Segment count: 1
# Begin: Segment
# Begin: Header
# Title: 
# Desc: time = 1.9423395541227992e-10
# Desc: stepsize = 3.5916949260562236e-13
# Desc: step = 420
# meshunit: m
# valueunit: (none)
# valuemultiplier: 218606.5432862718
# xmin: 0
# ymin: 0
# zmin: 0
# xmax: 4e-07
# ymax: 1e-07
# zmax: 4e-09
# ValueRangeMaxMag: 1
# ValueRangeMinMag: 0.003871474770242714
# meshtype: rectangular
# xbase: 2e-09
# ybase: 2e-09
# zbase: 1e-09
# xstepsize: 4e-09
# ystepsize: 4e-09
# zstepsize: 2e-09
# xnodes: 100
# ynodes: 25
# znodes: 2
# End: Header
# Begin: Data Text
0.8315663373984408 -0.5373630428185635 -0.1404908778228039
0.2492164944287537 -0.3672908146715405 0.06814625161440771
0.1169538831651796 -0.295237894595077 0.08271729594145
0.06276349332422503 -0.2494681396572469 0.07935593999781443
0.03475641177392454 -0.2139697447520004 0.07251816826719588
0.01860364981106499 -0.1842914997398426 0.06495770965082401
0.008779793424549149 -0.1588056320281283 0.05751175558683704
0.00268808847475245 -0.1367153849944723 0.05049358413345861
-0.001060166911889249 -0.1175108895800198 0.04402491692194366
-0.003276985031869758 -0.1008029124265922 0.03814342511162268
-0.004468320301355936 -0.08626790858706303 0.03284544884344785
-0.004964318878799794 -0.07362793250206585 0.02810646432120581
-0.004987922581387896 -0.06264168029008102 0.02389167997394583
-0.004693541926008109 -0.05309920881279317 0.02016138844857307
-0.004190073304654388 -0.044817891002391 0.01687445796206843
-0.003555336298658867 -0.03763885879630485 0.01399058910147752
-0.002845418951381028 -0.03142387344168982 0.01147103568037064
-0.002100882530149315 -0.02605252394855602 0.009279188730543148
-0.00135104098481633 -0.02141967671540227 0.007381014849758761
-0.0006169031033801354 -0.01743332295896484 0.005744993401661192
8.67734383549783e-05 -0.01401277322688913 0.004342194213810466
0.0007499435450656581 -0.01108707892123447 0.003146342196878312
0.001366171913252032 -0.008593750301909552 0.002133304724520252
0.00193179882329439 -0.00647765516085235 0.0012810961775585
0.002445232107241271 -0.004690053382248567 0.0005698002413233166
0.002906476917215668 -0.003187856522773962 -1.876159872898003e-05
0.003316765539501967 -0.001933011463076291 -0.0005008557094483345
0.003678204562949539 -0.0008919135448205352 -0.0008909721130265692
0.00399353392225136 -3.494948995566859e-05 -0.001202144568251656
0.004265907879032777 0.0006639681171926625 -0.001445880186823635
0.004498704966432048 0.001227837515036083 -0.001632300964414911
0.004695465427642268 0.00167685914748428 -0.001770413967784004
0.004859804032990691 0.002028757033034827 -0.00186791509790493
0.004995300593206463 0.002299055376385158 -0.001931653212351915
0.005105463401334449 0.002501328883580208 -0.001967726718747715
0.005193671997833712 0.002647431180664196 -0.00198132344483624
0.005263181128732419 0.002747644891714022 -0.001977096903563025
0.005317101468890034 0.002810832147892272 -0.001959013958298437
0.005358336637060091 0.002844620212474208 -0.001930524371646301
0.005389611902039275 0.002855515796809783 -0.001894631740554981
0.005413470381943598 0.002849010864912772 -0.001853758059549137
0.005432272819642689 0.002829721328287654 -0.001809933652368085
0.005448219324635096 0.002801458018423221 -0.001764784236797265
0.005463351973282364 0.002767355231393666 -0.001719534228317778
0.005479592497233481 0.002729941223793949 -0.001675106325468634
0.005498766864855908 0.002691193120217988 -0.001632142747302801
0.005522625422853133 0.002652640893836536 -0.001591019548494936
0.005552879148989974 0.002615372625268542 -0.00155197527322151
0.005591229538703622 0.002580107819419919 -0.001515064907702685
0.00563939806768328 0.002547215726597544 -0.001480215590011259
0.00569916257313371 0.002516711746989647 -0.00144730456331684
0.005772391276472761 0.002488299329384473 -0.001416046905751816
0.005861076856156491 0.002461310918015045 -0.001386110548433645
0.00596738249871089 0.002434716505220378 -0.001357030899219155
0.006093679652450478 0.002407074001425872 -0.001328158655509108
0.006242596408291065 0.002376453647385784 -0.001298716217942075
0.006417079130139555 0.002340408108682936 -0.001267632805119315
0.006620439693584977 0.002295833193143942 -0.001233553560792539
0.006856425765905899 0.002238884155448907 -0.001194788121272804
0.007129297053970529 0.002164843096832631 -0.001149134567126093
0.007443895873106006 0.002067936217159925 -0.001093913134096764
0.00780574952125576 0.001941180508797862 -0.00102585027632713
0.008221136764952612 0.001776122628685984 -0.0009408642398012496
0.008697189238899233 0.001562614070090053 -0.0008341253567491072
0.009242037290275232 0.001288550633272392 -0.0006997960128439895
0.009864885053950268 0.0009395029643839162 -0.0005309518025915129
0.01057613067105145 0.0004983476921966225 -0.0003194979856057459
0.01138749339401562 -5.513945683218823e-05 -5.561793014262296e-05
0.01231216263476355 -0.0007447439459810025 0.0002720977260600791
0.01336496940661686 -0.001598346854881552 0.0006770305004488218
0.01456242642327796 -0.002648586581406082 0.001175095709958574
0.01592282488740617 -0.003933509179798898 0.001784932007825945
0.01746635168664645 -0.005497189644823875 0.002528627158036493
0.01921504270767153 -0.007390503651784825 0.003431991935418505
0.02119264096471288 -0.009671869450861488 0.004525018179347281
0.02342426869150789 -0.01240790937499698 0.005842747807444624
0.02593584351678576 -0.01567402139705733 0.007425691752940618
0.02875327822863348 -0.01955464479818358 0.009320258388003065
0.03190123840041037 -0.02414328025960044 0.01157934305150862
0.03540132539685074 -0.02954216478368688 0.01426229651827833
0.03926968089761557 -0.03586136933651203 0.01743509219721126
0.04351382698581088 -0.04321723440822914 0.02117039331254057
0.0481287902606409 -0.05173005142053513 0.02554638456101287
0.05309262525758613 -0.06152086760807166 0.03064531401263374
0.05836136978526699 -0.07270758896734714 0.03655113737806428
0.06386392294517637 -0.0854003870561043 0.0433458370657501
0.06949763072333819 -0.09969649920484708 0.05110510388098571
0.07512544139427042 -0.1156747190592914 0.05989298454636349
0.08057582190597745 -0.1333895670920205 0.0697555728927285
0.08564629957790004 -0.1528647760748609 0.08071558723373772
0.09011072290537843 -0.1740850078615089 0.09276780268642584
0.09372977778916097 -0.1969828164871475 0.1058758392343558
0.09626351998470177 -0.2214140479305906 0.1199723061670656
0.0974855707061958 -0.2471067022954293 0.1349618981776566
0.09720715236484845 -0.2735469225044225 0.1507264932170899
0.09535304433092499 -0.2997023178913754 0.1671387323872788
0.09228329494325746 -0.3232564007588187 0.1841254189536859
0.0904261200493143 -0.3380042846328882 0.2020915032005671
0.1057236772171267 -0.3215582957300692 0.2263850017806003
0.3327422853999589 -0.1331221884282338 0.3580351536726644
0.8779334470913788 -0.1883464250858287 -0.2408819664464955
0.3094094878524987 -0.1717645220552519 -0.006852941173675961
0.1560620799694235 -0.1429597273097477 0.01831107637812155
0.09137973539517516 -0.1196826793892205 0.02241035340747892
0.05759231264117537 -0.1013652399693059 0.02223984603773637
0.03763466351271835 -0.08646893603700999 0.02083375471898652
0.02495685388584444 -0.07404837327492508 0.01902481033586851
0.01656165210592545 -0.06354510387477122 0.01710891345689495
0.01088648863432166 -0.05459610141506634 0.01521398970469956
0.007031146316009461 -0.04693926952820013 0.01340328106181864
0.004436013502079113 -0.04037066771899219 0.01170948010673123
0.002732822366549878 -0.03472465544429992 0.01014880307487434
0.001668745595075003 -0.02986378833854608 0.008727623571895502
0.001064755523565306 -0.02567289135203829 0.007445645684253282
0.0007912715491486699 -0.02205502461524429 0.006298404738084354
0.0007529789864270124 -0.01892841033829283 0.005279145166770476
0.0008789739183092896 -0.01622394701053675 0.004379479097762212
0.001116176844324306 -0.01388312725364654 0.003590161279892425
0.001424707048865278 -0.01185628910679089 0.002901767789845233
0.001774616721457402 -0.01010115467062717 0.002304874875745595
0.002143576059686955 -0.008581606437871212 0.001790430290665345
0.002515103121291066 -0.007266676211448702 0.001350046906552628
0.002877265651142334 -0.006129709608097423 0.0009756328823718808
0.003221703263431411 -0.005147674980705928 0.0006595853230782323
0.003542773020783431 -0.004300594617740602 0.0003948855011974536
0.003836950078718299 -0.003571088714856257 0.000174887605001918
0.004102382804281226 -0.002944000564276779 -6.356375485092488e-06
0.004338473814874645 -0.002406084545458983 -0.000154124195604276
0.004545588352936749 -0.001945743615278112 -0.000273253307253524
0.004724808038664218 -0.001552806163515279 -0.0003679704982047884
0.004877685929656048 -0.001218337713238472 -0.0004419393646780112
0.005006143936987549 -0.000934485504854392 -0.0004984393587380089
0.005112369747671271 -0.0006943410816873063 -0.0005401029338167059
0.00519868485033882 -0.0004918233154798933 -0.0005693521358231533
0.005267487632861969 -0.0003215797580507153 -0.0005884247446334239
0.005321163212430878 -0.0001789048410373932 -0.0005991406262690842
0.005362068128891826 -5.967218574556532e-05 -0.0006032539136953459
0.005392515068281909 3.972456358833505e-05 -0.0006022410004029621
0.005414696683583117 0.0001224280081254241 -0.0005974398942533415
0.005430696403815253 0.0001911605583215246 -0.0005900720844454928
0.005442485713041788 0.0002482661324794409 -0.0005810518749075046
0.005451916543747492 0.0002957512374938561 -0.0005711643925168317
0.005460739799283899 0.00033531845431075 -0.0005610036335842669
0.005470603350811583 0.0003684000443557587 -0.0005509507425208644
0.005483074642932794 0.0003961862580191332 -0.0005412524497269913
0.005499669483533109 0.0004196483924574884 -0.000532016323082317
0.00552186015645753 0.0004395621121860889 -0.000523222024501045
0.005551104226928738 0.0004565238883114769 -0.0005148304246936696
0.005588873905157709 0.0004709658423715289 -0.0005067339096856989
0.005636668736604554 0.0004831648508479215 -0.0004988107292633711
0.005696053808336282 0.0004932478345533823 -0.0004909978407863148
0.005768680443769755 0.000501193291508683 -0.0004831859078676081
0.005856310890016046 0.0005068245689030201 -0.0004753355071362823
0.005960863086891156 0.0005098025725823216 -0.0004674032717963702
0.006084429636989203 0.0005096093233576032 -0.0004592981444334794
0.006229325914925415 0.0005055259367080108 -0.0004509524452418577
0.006398136217358201 0.0004966080421982897 -0.0004421795553824458
0.006593746326814237 0.0004816483033618709 -0.000432702061974402
0.006819411022796889 0.0004591363780552853 -0.0004221397089125019
0.007078807498165832 0.000427211510207657 -0.0004098618821566147
0.007376095406303506 0.0003836017270676036 -0.0003950765537534183
0.00771599923493515 0.0003255587967473257 -0.0003767810716609176
0.008103856071999987 0.0002497794914115543 -0.0003536040480700327
0.008545713222396386 0.0001523205899118603 -0.0003239648512536283
0.009048438477201139 2.850314084696323e-05 -0.0002858985644439684
0.009619764017076276 -0.0001272005892373461 -0.0002371084230753112
0.01026839908840692 -0.0003212888611939761 -0.0001750211047783334
0.01100413600377809 -0.0005613591115548997 -9.63409301384641e-05
0.01183796406289389 -0.0008562513533382218 2.625866983122685e-06
0.01278219607837119 -0.001216205848305272 0.0001261604988104885
0.01385048792653859 -0.001653029817338004 0.0002794989817452546
0.01505795594762285 -0.002180251917328014 0.0004687939106009958
0.01642128202092997 -0.002813262656443222 0.0007016208887919228
0.01795865675704084 -0.003569438081844676 0.0009869569790628963
0.01968969851594433 -0.004468219018124459 0.001335329041014922
0.0216352168991324 -0.005531110245568948 0.001759441741815113
0.02381677405671089 -0.006781578341922802 0.002274344553561327
0.02625608342353562 -0.008244804707484527 0.002897652267303996
0.02897398250668083 -0.009947278895195564 0.003650053807842518
0.03198890256855178 -0.01191620392876268 0.004555256634509322
0.03531483750080538 -0.01417868474596186 0.005640363352863411
0.03895855776851576 -0.0167607018336576 0.006936447365793292
0.04291609750785687 -0.0196859232143556 0.008478098985059303
0.04716856536726399 -0.02297443226523083 0.01030303439266468
0.05167724374434875 -0.02664152736182704 0.01245115974377321
0.05637849198395001 -0.03069674813391347 0.01496252209018178
0.06117925294673725 -0.03514325056555215 0.01787486199470543
0.06595415598171207 -0.03997752568854664 0.02122023398095515
0.07054581930084391 -0.04518912753722398 0.02502047244952944
0.07476991994192438 -0.05075949207599274 0.02928326757536475
0.07842639311677695 -0.05665787403228927 0.03399870040585599
0.08131873297402936 -0.06283076691912859 0.03913681246984541
0.08328503783494511 -0.06917805503138953 0.04464894788528356
0.08425186995250465 -0.07550263005256125 0.05047400312739364
0.08435003270544374 -0.08140425324457538 0.05655252854856928
0.084228919820363 -0.08604523868784406 0.06286800614941665
0.08609626023561479 -0.08759010775926203 0.06960863071921232
0.09793092063919907 -0.08176979084142555 0.07805233460169034
0.1559222856981055 -0.05865776366455621 0.09826334076091335
0.5166325976745065 -0.007179193082885943 0.2709199281536676
0.8538201282987506 -0.1032210903125316 -0.2470501442499749
0.3230865673499868 -0.1128607765037445 -0.0174980543338171
0.1747283993032815 -0.1038474022674988 0.009720051491618203
0.108092011974527 -0.09088152832103315 0.01563519888136579
0.0717136872211136 -0.07843361268122201 0.01678678737737616
0.04953042275088878 -0.06747891863892336 0.01637434166672726
0.03502818091203126 -0.05805302273016136 0.01534498860473249
0.02512644741807379 -0.04998763025197351 0.01405871258512063
0.01819258744836054 -0.04309278615288915 0.01268114267958481
0.01327741372880276 -0.03719596683444488 0.01130012034576103
0.009786100053148238 -0.03214756850958322 0.009965928124927571
0.007323327838847172 -0.02781945883742173 0.008708083944513513
0.005614389805772753 -0.0241025099195808 0.007543272209265892
0.0044620592140209 -0.02090419305958604 0.006479289890390195
0.003721451194970161 -0.01814636273128169 0.005518082124374971
0.003284359366671579 -0.01576322653283504 0.004657989876435708
0.003069048946550883 -0.01369951616212507 0.003894700215823713
0.003013377531765619 -0.01190884554982407 0.003222266593801146
0.003069905647885052 -0.01035226960370558 0.002633965661580258
0.00320239431186066 -0.008997048423412769 0.002122603899206035
0.003383285901850106 -0.007815590959672743 0.001681008507588001
0.003591754468203249 -0.006784570544095599 0.001302406092839102
0.003812252868519432 -0.005884183776790123 0.0009800891202692663
0.004033407876000678 -0.005097542813369059 0.0007076388777380977
0.004247053662845018 -0.004410174202186451 0.0004790728191540164
0.004447536515736101 -0.003809615048175712 0.0002886554770836453
0.004631200823206343 -0.003285086367741376 0.000131238918433954
0.004795915518736132 -0.002827226120589634 2.270752373670075e-06
0.004940735339567006 -0.002427866843010792 -0.0001024333709420217
0.00506561790985054 -0.002079855591292198 -0.0001865203999476742
0.005171145672329022 -0.001776908067131766 -0.0002531208497904437
0.005258397086921204 -0.001513490476259707 -0.0003050208014118978
0.005328828067027387 -0.001284716086801088 -0.0003444138044212181
0.005384121995204941 -0.001086258622707666 -0.0003733289526387835
0.005426113159301409 -0.0009142846055612094 -0.0003936637845951592
0.005456685016521673 -0.0007653986427231279 -0.0004069425309438532
0.005477745980418496 -0.0006365954954760906 -0.0004146505186908064
0.005491207795362089 -0.0005252201473249329 -0.0004180386235179221
0.005498902331520823 -0.0004289307379765957 -0.0004182512237374825
0.00550258559334127 -0.000345673047136166 -0.0004163435058519279
0.005503934523029059 -0.0002736549859303747 -0.0004130898772425627
0.005504535999442403 -0.000211320177196776 -0.0004091518085701031
0.005505901958105732 -0.00015732858509184 -0.0004050248009241401
0.0055094653280131 -0.0001105365940376047 -0.0004010076157252331
0.005516598693410338 -6.997893981290263e-05 -0.0003972790416645829
0.005528641710169324 -3.485481613492237e-05 -0.0003938956472995658
0.005546905854859644 -4.513297829707632e-06 -0.0003907980795003819
0.005572700076194937 2.155744959982139e-05 -0.0003879231193517382
0.005607357463034383 4.37387709280199e-05 -0.0003851503097601883
0.005652243699993774 6.228689702113224e-05 -0.0003823599449763631
0.005708792783638676 7.733638619091066e-05 -0.0003795049315281078
0.005778522986855469 8.890008285365827e-05 -0.0003765053209822967
0.005863057690851231 9.686486560105043e-05 -0.0003733724772992369
0.005964166395533356 0.0001009865135320196 -0.0003701310774027489
0.00608377783306708 0.0001008774811902957 -0.0003667823035748314
0.00622402461468873 9.599159112473787e-05 -0.000363376394799723
0.006387282791128325 8.56063512606653e-05 -0.0003598665958853764
0.006576199022458741 6.87966390342736e-05 -0.0003561500594978654
0.006793753667048793 4.440745038920438e-05 -0.0003520465101418118
0.007043305491167934 1.102084284115964e-05 -0.0003471571249927667
0.007328646728501403 -3.308561656734605e-05 -0.0003409659380009648
0.007654077547309394 -8.99811679387503e-05 -0.0003327817910174512
0.008024446595069177 -0.0001621335918517286 -0.000321609149699111
0.00844524424463719 -0.0002524631644546045 -0.0003063106465191418
0.008922700538469568 -0.0003644039047219617 -0.0002854409432716922
0.009463822375965165 -0.0005019719598742556 -0.000257341145814562
0.01007650244693086 -0.0006698352056714839 -0.0002201914425452584
0.01076961628137743 -0.0008733893298479377 -0.0001715949014573939
0.01155313101990705 -0.001118838032821257 -0.0001089291588542087
0.01243822886360088 -0.00141327105970224 -2.916213593056791e-05
0.01343733377266289 -0.00176473777745087 7.147418528087894e-05
0.01456425023206843 -0.002182298830659956 0.000197431361744991
0.01583429215553549 -0.00267605573028869 0.0003543480894451322
0.01726426641737018 -0.003257142446959441 0.0005489878553975728
0.01887246340832649 -0.003937652520835061 0.0007893674596230964
0.02067851277009817 -0.004730481086135689 0.001085388355984148
0.02270306509436485 -0.005649064886373741 0.00144897928377938
0.02496734178221457 -0.00670697990528486 0.001894347256126966
0.02749227405814724 -0.007917387287788773 0.002438543650512322
0.03029715961850048 -0.009292302254841921 0.003101458942669218
0.03339782268602241 -0.01084167371908542 0.003906332777058032
0.03680397420185957 -0.01257230234769017 0.004880503940415237
0.04051576465689408 -0.01448666602562335 0.006055133175287182
0.04451953054489792 -0.0165817411401727 0.007465033517828993
0.04878264033365284 -0.01884801802274265 0.009147928574580943
0.05324796297357903 -0.02126889363443754 0.01114246722782225
0.05782883594061149 -0.02382062573506048 0.01348573529032966
0.06240572537019865 -0.02647291719355106 0.01620964308252421
0.06682664910628436 -0.02918987843046859 0.01933586786927205
0.0709137268984356 -0.03193055628713091 0.02287119020506824
0.07447843751544726 -0.03464725260839105 0.02680322487371166
0.07734952056021215 -0.03727850915774345 0.03109736958725682
0.07942062495101346 -0.03973152916113135 0.03569820258446668
0.08073581776343655 -0.04184536517741395 0.04053724488908059
0.08166823309928072 -0.04331988576432391 0.04555183302405439
0.08336625491722083 -0.04358509078103522 0.05074037110894211
0.08906801503437288 -0.04158177960334484 0.05636935554528185
0.1087141522701857 -0.03553700311860282 0.06401694417079382
0.1800007938043116 -0.02367744873252423 0.08468894905347775
0.5412007084870921 -0.01044956941153307 0.2576304131822049
0.8197354750424756 -0.06863839661235742 -0.2450418047032738
0.3204026995196803 -0.08661739110686199 -0.02334367282538353
0.1825108166826758 -0.08659558269205299 0.004292571542973926
0.1185950346888179 -0.07982666434049701 0.01147140124955456
0.08212481524526435 -0.07105468740495979 0.01374796878117841
0.05897681488638872 -0.06225967950707662 0.01419119574041008
0.0433227681445884 -0.0541699794614876 0.01378577964730491
0.03231043748545166 -0.04699332252045151 0.01294974086644428
0.02437674169312534 -0.04073274027648625 0.01189679452717246
0.01858701871926626 -0.0353156460507317 0.01075025289709002
0.01434159714759783 -0.03064614647389611 0.009585897241481345
0.01123363692854692 -0.02662642985590663 0.008451518200747349
0.008975076096777954 -0.02316542953688002 0.007376899642804762
0.007355494737261627 -0.02018199596144719 0.00637923677936991
0.006217828707443651 -0.01760558402333081 0.005467206106150316
0.005443044012987756 -0.0153757883260035 0.004643953582253713
0.004940009286696624 -0.01344138929247231 0.003908590123253423
0.004638565467738278 -0.01175921484023479 0.003257591754284409
0.004484516924155692 -0.0102929885582336 0.002685941200243193
0.004435975957433632 -0.009012261877660696 0.002187651507589129
0.004460690658593253 -0.007891461085356287 0.001756403370589121
0.004533953109990128 -0.00690906471868626 0.001386029240997079
0.004637012107835726 -0.006046894233660291 0.001070258554030968
0.00475585010496412 -0.005289527984450714 0.00080296915961966
0.00488011584137827 -0.004623815549761098 0.0005783753379253345
0.005002340463501427 -0.004038481685826279 0.0003908825211469006
0.005117354490982294 -0.00352380405048872 0.0002354483058130714
0.005221760697372063 -0.003071355633369293 0.0001076114392280473
0.00531354919182042 -0.002673790672216464 3.266597094488497e-06
0.005391776519651862 -0.002324673100070869 -8.116302059856415e-05
0.005456254596858103 -0.002018338581533822 -0.0001487305360498781
0.005507397339287737 -0.001749786860386436 -0.0002021364646426218
0.005546089405432441 -0.001514590124301917 -0.000243493268607144
0.005573519410264642 -0.0013088143379627 -0.0002747473126817518
0.005591083770156728 -0.001128958442646487 -0.0002977308004886018
0.005600276765433115 -0.0009719072507574371 -0.0003139152513823849
0.005602659622381664 -0.0008348897069757472 -0.0003247248330121609
0.005599833090816167 -0.0007154444246524342 -0.0003313678888008959
0.005593348174575128 -0.0006113863256445601 -0.0003349517337193061
0.005584703109868143 -0.0005207850854184456 -0.0003364950377611971
0.005575340449675031 -0.0004419454229869623 -0.0003367428582787116
0.005566633708183596 -0.0003733854501224161 -0.0003363219083376635
0.005559899015033457 -0.0003138212076714198 -0.0003357027429164737
0.005556390509901829 -0.0002621510406624113 -0.0003351631772227973
0.005557316514680005 -0.0002174399596410379 -0.0003348619623370103
0.005563865843812076 -0.000178908426331616 -0.0003348427679715161
0.005577210489823698 -0.0001459200981112633 -0.0003350343569648467
0.005598528442347203 -0.0001179722417116196 -0.0003353671064803028
0.005629028335081209 -9.46895738425635e-05 -0.0003357183658877074
0.005669955129025855 -7.581961029420994e-05 -0.0003359721143371409
0.005722623543456087 -6.12298352818315e-05 -0.0003360913897899188
0.005788430767619692 -5.090891987680499e-05 -0.0003360118800332869
0.005868874358982848 -4.497023518850167e-05 -0.0003357725624116094
0.005965589984930293 -4.365718222353463e-05 -0.0003354346910840571
0.006080360272537018 -4.735415946385889e-05 -0.0003350505583679442
0.006215156492216439 -5.659976142345719e-05 -0.0003347377954971406
0.006372173015286733 -7.210318023148959e-05 -0.0003345274876722011
0.006553850788871688 -9.476698258742056e-05 -0.0003344148180833968
0.006762936613031478 -0.0001257113931306327 -0.0003343255651916107
0.007002521176518599 -0.0001663039544793299 -0.0003339773025530521
0.007276091643835343 -0.0002181953895395499 -0.0003329902683298092
0.007587600679738554 -0.0002833561196834253 -0.0003308149337811051
0.00794150234722279 -0.0003641199178687876 -0.0003266300183594487
0.008342842744082257 -0.0004632283909678201 -0.0003195008383429621
0.00879734984475174 -0.0005838826731429175 -0.0003082154414847457
0.00931146988504801 -0.0007297982394888361 -0.0002914163300495924
0.009892474217135043 -0.000905259235618223 -0.0002676394262496099
0.01054855045070623 -0.001115179821505668 -0.0002349211223951431
0.01128891500735158 -0.001365164290293544 -0.0001911595587173419
0.01212394305714664 -0.001661560865977299 -0.000133921798250028
0.01306520971864654 -0.002011506423768307 -6.015117260094677e-05
0.01412565492365957 -0.00242294384539202 3.378532699847892e-05
0.01531974569380683 -0.002904615884608949 0.0001526163694650233
0.01666351453778391 -0.00346601313946942 0.0003020835409772058
0.01817462978505836 -0.004117249743596768 0.0004890695930951221
0.01987234676840157 -0.004868852446744007 0.0007222508791684653
0.02177731286796803 -0.005731443693626297 0.00101223228053632
0.02391127010045392 -0.006715272117078552 0.001371846330810148
0.02629636340119768 -0.00782958983188242 0.001816786725580557
0.02895398625563972 -0.009081834282578855 0.002365658344407509
0.03190312517385566 -0.01047660369478118 0.003040622516699082
0.03515785454836881 -0.01201445204228384 0.003868314427871975
0.03872394089512483 -0.01369055944150024 0.004879735122206286
0.0425944978668383 -0.01549336172740144 0.006110286512948
0.0467445245438189 -0.01740334761740922 0.007599193692060602
0.05112483101176506 -0.01939223465774705 0.009387541363372229
0.05565626560032125 -0.02142278786841227 0.01151569291835667
0.06022559204959641 -0.02344949441557255 0.01401936944239888
0.06468550186313453 -0.02542005909706253 0.01692394068577181
0.06886183476549103 -0.02727723466421225 0.02023879555952991
0.07257160306549393 -0.02895969941875326 0.02395191419428053
0.07565713700407971 -0.0303996935753167 0.02802569922642579
0.07804519072118185 -0.03151396346826795 0.03239775730771662
0.0798512217621295 -0.03218371663466212 0.03698915887400244
0.0815859169652275 -0.03221990734306584 0.0417259818593551
0.08463319548333367 -0.03131730377223466 0.04660198787261784
0.09255016349080918 -0.02903367515897469 0.05190314981351465
0.1153509968804335 -0.02495314302944558 0.05927550655610064
0.1888663101851239 -0.01955607560894029 0.07967590117587874
0.540629596388945 -0.01742944233461696 0.2486402202692697
0.7820162394201877 -0.05069176321656929 -0.2415013370855893
0.3111625121192474 -0.07207964988364735 -0.02871582888881859
0.1842463973405296 -0.07666896955836595 -0.001323700190209189
0.1249459569255273 -0.07388601566667244 0.006820329944061205
0.08998586840591333 -0.06786050634092919 0.01019153523993105
0.06690186332689474 -0.06075212161144602 0.01157865355062119
0.05069947603968584 -0.05363651277070976 0.01191315122179389
0.03892266148130166 -0.04700080582148644 0.01163220463606479
0.03018929650369201 -0.04102952772430056 0.01098611160062172
0.02364361769856036 -0.03575863615847167 0.0101336425173933
0.0187167834924098 -0.03115499753360343 0.009179852767696905
0.01501010271951311 -0.02715660349528727 0.008195178084902813
0.01223310663330196 -0.02369268049158835 0.007226383651842478
0.01016835233680882 -0.0206935079599468 0.00630318130370203
0.008650112854913555 -0.01809491901439414 0.00544333833780274
0.007550550017153387 -0.01584001691863949 0.004656544602291209
0.006770306507354779 -0.01387947133584053 0.003946605353156805
0.006231886962037781 -0.01217110140816576 0.003313312825867835
0.005874742622629115 -0.01067913670580283 0.002753969627586053
0.005651582304112485 -0.009373378259225133 0.00226422677305822
0.005525613344373061 -0.008228373609314893 0.001838902875727017
0.00546835105207568 -0.007222668059343155 0.00147260278358915
0.005457922029120725 -0.006338129438567233 0.001159597339537867
0.005477733298680442 -0.005559374963567141 0.000894118416603724
0.005515311810451065 -0.004873290303648301 0.0006705877218115888
0.005561436119707246 -0.004268633719189114 0.0004835418058078426
0.005609483698975253 -0.003735711026001072 0.0003280226267472805
0.005654849800138225 -0.00326611514005959 0.0001996287546924938
0.005694515377555536 -0.002852510777237751 9.430400005463846e-05
0.005726687533759073 -0.002488463272802338 8.509719323746637e-06
0.005750455352763498 -0.002168299206946071 -6.077015981380707e-05
0.005765609893236857 -0.001886999961527752 -0.0001161874929758336
0.005772499958051807 -0.001640113371490474 -0.0001598032388721048
0.005771851123991178 -0.001423677460273712 -0.0001935090161712167
0.005764650569722892 -0.001234158298003792 -0.0002190983523720881
0.005752028049660622 -0.001068403549404492 -0.0002380158986552419
0.005735218187843564 -0.0009236031053055699 -0.0002516475832920189
0.005715528590519298 -0.0007972571266529225 -0.0002611811210495268
0.005694245956380423 -0.0006871425755756634 -0.0002677066888508135
0.005672624753920876 -0.0005912901384394046 -0.0002722216185962704
0.005651883831085057 -0.000507965943977592 -0.0002754573645554245
0.005633191876463548 -0.0004356510903101133 -0.0002780182592309176
0.005617675397914437 -0.0003730260412683551 -0.0002803578425711014
0.005606413945356477 -0.0003189564565911194 -0.0002827397347999771
0.005600454129657866 -0.0002724779435932005 -0.0002853045978879867
0.005600834657927102 -0.0002327862490443381 -0.0002880847088943665
0.005608587991791033 -0.0001992257253276162 -0.0002909977373832525
0.005624760003211608 -0.0001712793053057522 -0.0002939661745177186
0.005650432977468253 -0.0001485633324155139 -0.0002968654108414164
0.005686729134083502 -0.0001308220318129041 -0.0002995802026823586
0.005734841094011712 -0.0001179247778325681 -0.0003020806455158371
0.005796042120219194 -0.0001098680409879065 -0.0003043159202092731
0.005871700970510346 -0.0001067785372295956 -0.0003063472063548746
0.005963316545899572 -0.0001089196745829716 -0.0003082682666660961
0.006072523467184138 -0.0001167020705222988 -0.000310175362308791
0.006201130407210177 -0.0001306962963586589 -0.0003122438073570044
0.006351150413872042 -0.0001516494950474823 -0.0003145719394288092
0.006524821026044789 -0.00018050634528032 -0.0003172359370492761
0.00672465954424685 -0.0002184329861918853 -0.0003202497403874803
0.006953495847638309 -0.000266845265626839 -0.0003234258758894501
0.007214522767419081 -0.0003274417847815625 -0.0003264931708152055
0.007511360638671047 -0.0004022392208286461 -0.0003290141049187339