# OOMMF: rectangular mesh v1.0
# Segment count: 1
# Begin: Segment
# Begin: Header
# Title: 
# Desc: time = 1.1748740069334625e-10
# Desc: stepsize = 4.2630885512136953e-13
# Desc: step = 240
# meshunit: m
# valueunit: (none)
# valuemultiplier: 218492.0668143019
# xmin: 0
# ymin: 0
# zmin: 0
# xmax: 4e-07
# ymax: 1e-07
# zmax: 4e-09
# ValueRangeMaxMag: 0.9999999999999999
# ValueRangeMinMag: 0.003875295535954693
# meshtype: rectangular
# xbase: 2e-09
# ybase: 2e-09
# zbase: 1e-09
# xstepsize: 4e-09
# ystepsize: 4e-09
# zstepsize: 2e-09
# xnodes: 100
# ynodes: 25
# znodes: 2
# End: Header
# Begin: Data Text
0.8320844128964242 -0.5364133011285834 -0.1410542455481178
0.2494777128154561 -0.3659588837186389 0.06782125052856043
0.1171700003789208 -0.2939636323149329 0.08244037471291447
0.06295210981435066 -0.2483233378625811 0.07910642224830765
0.03492440274219531 -0.2129619814769301 0.07229052362825902
0.01875549457790855 -0.1834108516209972 0.06474949424332621
0.008918622771132138 -0.1580375564559205 0.05732144415624398
0.002816107695793531 -0.1360451587001009 0.05032011704271412
-0.000941379150449387 -0.1169251327222072 0.04386726075574238
-0.003166235791683311 -0.1002899962830064 0.03800037054157249
-0.004364682483095047 -0.08581791792078362 0.03271584500002033
-0.0048670833936619 -0.07323248172522262 0.02798915557862853
-0.004896517982469569 -0.06229373792345217 0.02378533984691089
-0.0046074829008647 -0.05279290067640725 0.02006479686978742
-0.004108990327648259 -0.0445482894699526 0.01678659417597208
-0.003478992994848053 -0.03740182131600076 0.0139103990111659
-0.002773696371535222 -0.03121585232109559 0.01139755702733732
-0.002033736311475651 -0.0258703573362793 0.0092116223362233
-0.001288419586445132 -0.02126049565954222 0.007318550020400418
-0.0005587279499712207 -0.01729453899732521 0.005686878623609589
0.0001405726669835712 -0.01389203549847415 0.004287785105761156
0.000799475375246495 -0.01098220933986782 0.003094902821755773
0.001411613513789793 -0.008502696306998998 0.002084069921629327
0.001973335541797612 -0.006398547101443633 0.001233313645148388
0.002483030957877862 -0.004621296356330909 0.000522919158293331
0.002940693067660288 -0.003128100391028707 -6.480795001791693e-05
0.003347566250229695 -0.001881061581087994 -0.0005458356627033871
0.003705806212356051 -0.0008467131796335221 -0.0009345604105382208
0.004018195873065128 4.433974588708955e-06 -0.001243902062250249
0.004287905165626568 0.0006983121543761402 -0.001485295262198334
0.004518332522034198 0.001257716963487239 -0.001668778120554449
0.004713035371018703 0.001702733602801976 -0.001803214608727723
0.004875649341314437 0.002051034037151025 -0.001896550953034125
0.005009790207186848 0.002318091757241048 -0.001956000212053041
0.005118971220423907 0.002517392359226684 -0.001987958249434733
0.005206514946732691 0.002660630837221434 -0.001997928064363186
0.005275525927848551 0.002757963900812606 -0.00199053400853786
0.005328936327455285 0.00281823130130177 -0.00196968009637522
0.005369550709435198 0.002849100317651253 -0.00193877971492803
0.005400071678061463 0.002857182508092396 -0.001900699688030271
0.005423065535256053 0.002848100833872945 -0.001857783129951776
0.005440933365809942 0.002826515453153491 -0.001812016240360252
0.005455925194414122 0.002796205422537936 -0.001764916251820044
0.005470118436076734 0.002760197719879055 -0.001717440627450139
0.005485428858077604 0.002720912326047977 -0.001670248635978285
0.005503679816251199 0.002680306844475901 -0.001623922453992206
0.005526631838013423 0.002639945258066212 -0.001579019919891849
0.00555599551252275 0.00260105818174498 -0.001536196197419603
0.005593473464044625 0.002564560690636829 -0.001496157909713343
0.005640781798030183 0.002530983446489122 -0.001459449990858759
0.00569967218629487 0.002500459060571137 -0.001426316725014699
0.005771992339173654 0.002472704910588321 -0.001396546335219034
0.005859730857214156 0.002446981820075222 -0.001369437799898051
0.005965054209555577 0.002422102466674798 -0.001343960200613395
0.006090360023592729 0.002396446063879751 -0.001318892377153346
0.006238305012671644 0.002367952926983304 -0.001292938415856139
0.006411827248473939 0.002334079847248158 -0.001264854674453666
0.006614218443149631 0.002291743636775233 -0.001233438602276424
0.006849213907662251 0.002237196481725044 -0.001197213863200966
0.00712106276363135 0.002165802419792708 -0.001154165512670056
0.00743462071455551 0.002071828535329981 -0.001101747394707601
0.007795456389369558 0.001948240050258598 -0.001036671512528926
0.00820989439654079 0.001786488900895395 -0.000954745994984661
0.008685039236069465 0.00157632037694279 -0.0008510806351045106
0.009228886577193118 0.001305566688342485 -0.0007200379041299274
0.009850474597792026 0.0009598852884590632 -0.000554883508571628
0.01056004137929882 0.0005223676391045841 -0.0003474419861606437
0.01136921666779951 -2.697353245898764e-05 -8.783832227530396e-05
0.01229117936560934 -0.0007117494100770407 0.0002356213937057631
0.01334076536249392 -0.001559730613426638 0.0006366375989810242
0.01453453901278745 -0.002603423165977153 0.001131211239784214
0.01589083659130473 -0.00388067488519109 0.001737961029892431
0.01742983609361948 -0.005435361141215699 0.002478696735969607
0.01917359994191313 -0.007318181720887803 0.003379115417697465
0.02114594923759923 -0.00958743418457716 0.004469284658017397
0.02337211232868726 -0.01230966588665736 0.005784097836411045
0.02587814608430289 -0.01556017406838498 0.007363731404795489
0.02869006434953951 -0.01942329313666751 0.009254178823443909
0.03183263360111852 -0.0239924422941976 0.01150792500971077
0.03532769885788542 -0.02936987574052306 0.0141843950979175
0.03919176980171532 -0.03566584339114597 0.01734986022420074
0.04343281545105498 -0.04299695964828239 0.02107692891566864
0.04804640375797793 -0.05148385698489424 0.0254438639005959
0.05301119641866809 -0.06124812565546454 0.03053320118523293
0.05828386218022405 -0.07240842218604761 0.03642922073016523
0.06379389126719925 -0.08507575405397941 0.04321436833152352
0.06943911921897399 -0.09934822871631399 0.05096477399898943
0.07508289072816132 -0.1153054903578247 0.05974489956945237
0.08055386325708713 -0.1330028605319347 0.0696015816986261
0.08564936160023331 -0.1524648409685494 0.08055824075757709
0.09014261646777914 -0.1736767894037125 0.09261019044363238
0.09379330278150597 -0.1965717683208357 0.1057219033198991
0.09636010111536729 -0.2210058557284842 0.1198267990583607
0.09761521831956738 -0.246706905279257 0.1348296611822656
0.09736886617627613 -0.2731604153689905 0.1506120186085114
0.09554573231248069 -0.2993326270102883 0.1670460969485343
0.09250807685861896 -0.3229042598187971 0.1840582484264581
0.09069323405488521 -0.3376638436478592 0.2020540036771196
0.1060825302594998 -0.3212034631468391 0.2263904898109621
0.3335557744050827 -0.1326401239214346 0.3582375881384386
0.8790753857754838 -0.1881009810251948 -0.2411146119348767
0.3097770421657811 -0.171291703008503 -0.006731260307032306
0.1562429774967319 -0.1424349607392516 0.01844128234094546
0.0914940640331469 -0.1191796911991986 0.02251519086576053
0.05767901377408226 -0.1009091993057589 0.02231810788596189
0.03770938425638317 -0.08606559131853414 0.02088977830045347
0.02502639727703402 -0.07369579068191583 0.01906352726033399
0.01662892593722727 -0.0632385181342541 0.01713480539723718
0.01095260090910863 -0.05433000311417958 0.01523057837148177
0.007096412004205944 -0.04670829704923175 0.01341305049614736
0.004500398339798485 -0.04016996195710703 0.01171427926568372
0.00279611322301889 -0.03454997092636615 0.01014989197293026
0.001730679019235401 -0.02971149313349125 0.008725618269939202
0.001125095847175514 -0.02553991761321088 0.007440918760217606
0.0008497830764588266 -0.02193879829666053 0.006291245842671705
0.0008094105311245057 -0.01882677129069434 0.005269585220476132
0.0009330826447872115 -0.01613506563984947 0.004367506816192124
0.001167741996604792 -0.0138054310384473 0.003575840402766995
0.00147356115262133 -0.01178840986220268 0.002885077226988776
0.001820647348345221 -0.01004189096929696 0.002285799389123033
0.002186700597758513 -0.008529891122415468 0.001769002021666093
0.002555314885285298 -0.007221549174263758 0.001326141322747431
0.002914627086895561 -0.006090304649999902 0.0009490520950719487
0.003256249138594703 -0.005113223785832756 0.0006300945630500906
0.00357451105792603 -0.004270431887222618 0.0003624161949175962
0.003865911147010745 -0.003544640985472383 0.0001398747222772231
0.004128639395153781 -0.002920768432854555 -4.316000223209378e-05
0.004362156587867116 -0.002385633306838755 -0.0001918771995041682
0.004566865708857926 -0.001927701818552716 -0.0003110307006937313
0.004743848351967886 -0.001536866827260768 -0.0004048184504123955
0.004894692350704323 -0.001204251820423661 -0.0004768605235244848
0.005021375570646761 -0.0009220449555523615 -0.0005303414832934106
0.005126121768830156 -0.0006833672634564774 -0.0005682235008015014
0.00521127623988833 -0.00048216979942887 -0.0005933929453853443
0.00527921403814008 -0.0003131420269744443 -0.0006084994638227447
0.005332257507065105 -0.0001716263120313824 -0.000615797537639721
0.005372652334574189 -5.353318052718403e-05 -0.0006170830209366436
0.005402582266209495 4.473203763597474e-05 -0.0006137830589238242
0.005424180091556006 0.0001263242360109062 -0.0006071478997236083
0.005439528413954796 0.0001939938663781368 -0.00059817938757173
0.005450603493669993 0.0002501118159309491 -0.0005876515152597617
0.005459253952901462 0.0002966956693662572 -0.0005762654248454794
0.005467241516387423 0.000335441182586479 -0.0005644839343880789
0.005476230953414844 0.0003677601615872802 -0.0005523937635329646
0.005487804924240868 0.0003948245638639025 -0.0005399681412186978
0.005503516294999845 0.0004176050347191552 -0.0005272676005385861
0.005524890314057543 0.0004368966296883636 -0.000514467750723717
0.005553421275855986 0.0004533331031486058 -0.0005020002674138007
0.005590587258851699 0.0004673913544921346 -0.0004904959710374033
0.005637862853671637 0.0004793888410905016 -0.0004805255367280056
0.005696748586085261 0.0004894786729558979 -0.0004724433011274906
0.005768827480783994 0.000497643958507303 -0.0004662212888690529
0.005855815727311888 0.000503693115199983 -0.000461396710766516
0.005959605143822195 0.0005072539345989459 -0.0004572733979814868
0.006082316816297532 0.0005077657469214963 -0.0004531274339516038
0.006226317846117246 0.0005044724750471044 -0.0004483262165020094
0.006394222160131308 0.0004964054516692804 -0.0004424751378498449
0.006588941452864256 0.0004823520763609432 -0.0004354585315811526
0.006813736343765273 0.0004608108551470384 -0.0004271241717824346
0.007072260795076966 0.0004299323474657103 -0.0004170319173208136
0.007368654480786183 0.000387448939237381 -0.0004045328113621356
0.007707648149352171 0.000330603336484545 -0.000388623121796046
0.008094610692701096 0.0002560741025951231 -0.0003678572054312727
0.008535573651824292 0.0001599000411289231 -0.0003406506855442705
0.009037321833115858 3.740122375721275e-05 -0.0003053040748430001
0.009607497653664573 -0.0001169176266627552 -0.0002597248750123774
0.01025469601040435 -0.0003094920538648936 -0.0002011765604973088
0.01098861140885494 -0.0005478447314523023 -0.0001261718601471048
0.01182018886188041 -0.0008407490130061793 -3.058011372374223e-05
0.01276173162293109 -0.001198391139325049 9.033440981912614e-05
0.01382696389664458 -0.001632528368739431 0.000241991794158269
0.01503106110562792 -0.00215663805936626 0.0004305951887408263
0.01639068788969895 -0.002786062525452817 0.000663491197690619
0.0179240386593972 -0.00353813657512924 0.0009496010092722849
0.01965078080173991 -0.004432272636540014 0.001299589727215425
0.02159181510460029 -0.005489964940471392 0.001726027193971444
0.02376884093309322 -0.006734683932049351 0.002243593356243278
0.0262036613235876 -0.008191630249001297 0.002869445967872932
0.02891717733562895 -0.009887333916628412 0.003623833640317741
0.03192799287255267 -0.01184906806622871 0.004530550463949667
0.03525039601437205 -0.01410404801881923 0.005616990992875942
0.03889155504558935 -0.01667840553888318 0.006914080385003313
0.04284798069905717 -0.01959599220951005 0.008456365446366319
0.04710129255709925 -0.022877107479629 0.01028168638869471
0.05161334310568776 -0.02653729033724564 0.01242999663155335
0.05632108684460291 -0.03058630845798521 0.01494146462867366
0.06113199976294678 -0.03502749315983483 0.0178539083740052
0.06592117683326129 -0.03985743178360469 0.02119940549195963
0.07053150522678435 -0.04506567839473952 0.02500015076770381
0.07477853589726129 -0.05063356781432484 0.02926417401293043
0.07846167781031743 -0.05653016427953763 0.03398176378450457
0.08138352830329151 -0.06270170020760581 0.0391235902401539
0.08338094053002747 -0.06904775162726499 0.04464169416705908
0.08437924144044572 -0.07537086476429175 0.05047501006667426
0.08450853386680995 -0.08127036866294798 0.05656381453390323
0.08441876434987958 -0.08590787563712773 0.06289141727715419
0.08632145406121126 -0.08744646828463157 0.06964597339205628
0.09820890986303474 -0.08161384938301956 0.07810701427620444
0.1563218413267094 -0.05847707291590017 0.09835225950691361
0.5175316075595339 -0.006957509548460738 0.2712266496783608
0.8552396207806355 -0.1030978769857256 -0.2472627641239536
0.3235669837536078 -0.1125861182762334 -0.01730265488820363
0.1749321788090627 -0.103511179146338 0.009927585219401087
0.1081873518854208 -0.09053604402459194 0.0158094806335364
0.07176472174667076 -0.07810586928845462 0.01692430172115659
0.04956481111422657 -0.06718056957195537 0.01647998555430741
0.03505823578046757 -0.05778751297949716 0.01542506057867979
0.02515741889888769 -0.04975432642141577 0.01411912401156265
0.01822638561575744 -0.04288920190497731 0.0127266735380039
0.01331441769342349 -0.03701892473940287 0.01133430486098363
0.009825999768286761 -0.03199379324055444 0.009991449037805895
0.007365497615033235 -0.02768586774501928 0.008726831991105834
0.005658120402012945 -0.02398633802481654 0.007556345694687971
0.00450668732275738 -0.0208030287100407 0.006487440194428633
0.003766358388248818 -0.01805813829223102 0.005521893189917731
0.003328970346714381 -0.01568618498984484 0.004657726295231725
0.003112857431933127 -0.01363216500033814 0.003890547489388587
0.003055950212395717 -0.01184991124778116 0.003214456006671091
0.00311090148146715 -0.01030066110309264 0.002622620902202376
0.003241560029025845 -0.008951823208180366 0.002107840541518006
0.003420425086408812 -0.007775924278164708 0.001662969346152278
0.003626764323849355 -0.006749736135420096 0.001281049903453755
0.003845107072676049 -0.005853542965656286 0.0009552880461672757
0.004064053124910666 -0.005070535683435759 0.0006792308364573444
0.004275413579469609 -0.004386315248184953 0.0004470595221390402
0.004473569847648394 -0.003788488196929062 0.0002535495518617417
0.004654919579655976 -0.003266334458662394 9.389408536004613e-05
0.004817395391392998 -0.002810542440757493 -3.636036295312046e-05
0.004960091734974877 -0.002412991271654755 -0.0001413140259438059
0.005082969453925335 -0.002066571385179113 -0.0002245839913221666
0.00518665472648128 -0.001765035993936876 -0.0002892713352824053
0.005272293033813654 -0.001502880535227201 -0.0003380925545834096
0.005341379758528721 -0.001275241500407276 -0.0003735904415011609
0.005395618030578756 -0.001077816425718468 -0.0003982829899877838
0.005436815615817769 -0.0009067966172873026 -0.000414500965521701
0.00546679667434183 -0.0007588088359173635 -0.0004242269482407158
0.00548737152346844 -0.0006308643984330518 -0.0004290234307057775
0.005500339575477534 -0.0005203153583180976 -0.0004301007075838914
0.005507486054128014 -0.0004248180290427436 -0.0004284955807521861
0.005510571017509569 -0.0003423104317609298 -0.0004250158447301151
0.005511270262980912 -0.0002709928676558132 -0.0004202742535972644
0.005511157108642962 -0.0002093060939239916 -0.0004148378392410026
0.005511744856304246 -0.0001559114360492525 -0.0004090544437904392
0.005514479231371552 -0.0001096716464169477 -0.0004029209311270008
0.005520754854594652 -6.962690234129724e-05 -0.0003963525242037084
0.005531962007704097 -3.497353101038591e-05 -0.0003893662722812585
0.005549478339187679 -5.04798890144504e-06 -0.0003821056891942037
0.005574657726277925 2.068120194230386e-05 -0.0003749985877840218
0.005608840944627287 4.261778516149734e-05 -0.0003686919324451748
0.005653363083690082 6.104046137674447e-05 -0.0003637751209375472
0.005709579761918711 7.609961283084494e-05 -0.0003606314473090711
0.00577892584884278 8.78118362373933e-05 -0.0003592736751456085
0.005862965209860509 9.605721934001339e-05 -0.000359272831756996
0.005963429975976235 0.0001005736871201753 -0.0003599747342505431
0.006082275091281746 0.000100950171429539 -0.0003607375630188868
0.006221691734873198 9.661963454253533e-05 -0.0003610334648487888
0.006384096946555819 8.684486217992843e-05 -0.0003605865486970539
0.00657217398886141 7.069322987078976e-05 -0.000359435311221867
0.006788914648776608 4.700718748993939e-05 -0.0003576177074688883
0.007037654494949573 1.436962621841806e-05 -0.0003549201728280894
0.007322160307007547 -2.89402005705322e-05 -0.0003509665322423465
0.007646733153551809 -8.499220252953992e-05 -0.0003450768900841095
0.008016252461371547 -0.0001562539486939249 -0.0003362021559769898
0.008436199218281711 -0.0002456430870753134 -0.000323241645209144
0.008912738616691694 -0.0003565816232372012 -0.0003050586099127917
0.009452808178867102 -0.0004930599391264214 -0.0002802041960018029
0.01006419826987876 -0.0006597129092465999 -0.0002466828092024024
0.01075568798426188 -0.0008619003729997566 -0.00020186586055428
0.0115371930762987 -0.001105791145760182 -0.0001426416878029491
0.01241988046268153 -0.001398444724848656 -6.549092161047959e-05
0.01341624105315298 -0.001747882473665425 3.357177179915682e-05
0.01454013507079802 -0.002163140890822997 0.0001590778513523174
0.01580685417172527 -0.002654302862329945 0.0003164529364795839
0.01723320191440162 -0.00323248674244987 0.0005124208893795425
0.01883750427628429 -0.00390977800468307 0.000755138467329796
0.02063946687597506 -0.004699078184999466 0.001054343082182322
0.02265986178424341 -0.005613845756107872 0.001421562253425578
0.02491997941562113 -0.006667699341542354 0.001870516488204428
0.02744079108010935 -0.007873866708779577 0.002417791388671141
0.03024173874796251 -0.009244452378690511 0.003083358800149566
0.03333890621034524 -0.01078952229974289 0.003890737088021267
0.03674237264238262 -0.01251602467732268 0.004867090867615991
0.04045274498431136 -0.01442660597902532 0.006043522944924401
0.04445685813743815 -0.01651842173269513 0.007454942493861512
0.04872266192861553 -0.01878213511052865 0.009139055147944558
0.05319366823195466 -0.02120127899122614 0.0111345750503568
0.05778382514147425 -0.02375217933415122 0.01347862851325561
0.06237416727649977 -0.026404511373619 0.01620311571650727
0.06681310172052059 -0.0291222344846549 0.01933006451802039
0.07092273610688267 -0.0318641097068451 0.02286661937084788
0.07451411053515802 -0.03458203190974051 0.02680064330252108
0.07741511452091143 -0.03721405070817854 0.03109820935211084
0.07951815053060722 -0.03966684806583073 0.03570462103209562
0.08086603384067582 -0.04177897814821686 0.04055143502402906
0.08183125229462397 -0.04324983430614672 0.04557571550649916
0.08356301075350345 -0.04350886918106317 0.05077571544850681
0.08930395651498202 -0.04149603700858805 0.05641796169754097
0.1090095600845711 -0.03543694065313491 0.06408259494529957
0.1804282481064922 -0.0235562136798286 0.08479050984407623
0.5421428671520928 -0.01029603608666893 0.2579624365706649
0.8213391197304515 -0.0685632924864675 -0.2452619878164304
0.3209738426884982 -0.08643316142726128 -0.02311717727107443
0.1827530699656697 -0.08635307672397965 0.004539725510374714
0.1186947644591644 -0.07956037122461167 0.01168561672379551
0.08216102722696082 -0.070788448609411 0.01392187669168303
0.05898719164967497 -0.06200763156538341 0.01432831257030785
0.04332559598115217 -0.05393916394705189 0.01389232681883372
0.03231424978385702 -0.04678627251347214 0.01303211330455362
0.02438510768484492 -0.04054938065569359 0.01196043694741846
0.01860103968072786 -0.03515452574431444 0.01079936699561054
0.01436116102693797 -0.03050518869273445 0.009623740886904104
0.01125803745855183 -0.02650336976171384 0.008480439994726604
0.009003387550391239 -0.02305805618979876 0.007398358262155183
0.007386783946127991 -0.02008827277037755 0.006394266928430064
0.006251202241472706 -0.01752369713353992 0.005476617923973158
0.005477672138362821 -0.01530415542736534 0.004648196648688476
0.004975163909242352 -0.01337864417425627 0.003907997537415735
0.00467362497863411 -0.01170418018803086 0.003252518812583972
0.004518981415776312 -0.01024465140573161 0.002676624003145207
0.004469461098130643 -0.008969749931385008 0.002174300566165712
0.004492892563099198 -0.007854016964182 0.001739234741226604
0.004564676587041082 -0.006876027368774271 0.001365055852705004
0.004666148792446859 -0.006017687785206992 0.001045388444103696
0.004783272485362105 -0.005263650477087232 0.0007740740791835912
0.004905678537613575 -0.004600831851700269 0.0005454991183942042
0.00502594060879951 -0.004018018911386223 0.0003545920013878004
0.005138951826219018 -0.003505542880072984 0.0001966692139849258
0.005241385437414552 -0.003055021961695864 6.738005158320568e-05
0.005331275275532567 -0.002659150432087443 -3.728999532763308e-05
0.005407684523588864 -0.002311529016798243 -0.0001208857948128704
0.005470474293283321 -0.002006527885832666 -0.0001864445494765164
0.005520133038358948 -0.001739176182565549 -0.0002366212030657428
0.005557588401182466 -0.001505068162835876 -0.0002738981823068592
0.00558404834453636 -0.001300289876503928 -0.0003007361581164404
0.005600885040109175 -0.00112135866331848 -0.0003194154966706283
0.005609537671442897 -0.0009651734914264201 -0.0003318802259339719
0.005611475434077354 -0.0008289736816967155 -0.0003396646782358805
0.005608194001706139 -0.0007103023139655116 -0.0003439415746311965
0.005601202845895395 -0.0006069744640531157 -0.0003456867000416815
0.0055920060056863 -0.0005170576248530201 -0.0003456440328870003
0.005582042729425667 -0.0004388545630955682 -0.0003443774539660322
0.005572670371152468 -0.0003708831805140687 -0.0003424129713547995
0.005565203929472471 -0.000311859933737914 -0.0003400583222437792
0.005560908375192976 -0.0002606857997092087 -0.0003372845569988642
0.005561017420115154 -0.0002164291975295762 -0.0003340027974622925
0.005566778365923346 -0.0001783088619893308 -0.0003302269018065607
0.005579436391215624 -0.0001456794575090349 -0.000326095297491277
0.005600218296794266 -0.0001180242011648571 -0.0003220507547997702
0.005630342908152441 -9.495041355253692e-05 -0.000318764085784087
0.0056710226987581 -7.618616376181926e-05 -0.0003168333080406299
0.005723484489461705 -6.15850467863323e-05 -0.0003166510092874973
0.005789031277251694 -5.113259892999409e-05 -0.0003182576980579462
0.005869092303952481 -4.494881206225866e-05 -0.000321246812645726
0.005965258693532404 -4.329148056597702e-05 -0.0003249840282193908
0.006079337499589521 -4.656371243194983e-05 -0.0003288714361679889
0.006213362491949976 -5.53211154932602e-05 -0.0003324359492940266
0.006369575177965287 -7.028481804065082e-05 -0.0003354601711548941
0.006550458194511396 -9.236410430219766e-05 -0.0003380596494859144
0.006758773581831552 -0.0001226820837638352 -0.0003403588987926894
0.006997591167378498 -0.0001626044613611471 -0.0003422446568505449
0.007270372060098394 -0.0002137789769466616 -0.000343470407339932
0.007581070639840274 -0.0002781738366238056 -0.0003435176291902089
0.00793417475249943 -0.0003581177710699793 -0.0003415390983510822
0.008334726349208366 -0.0004563438581619676 -0.0003366817260171983
0.008788398375797113 -0.0005760373243721556 -0.000328087193044478
0.009301573767091958 -0.0007208896754020629 -0.0003146160109876734
0.009881422400251598 -0.0008951625569981869 -0.00029462181192467
0.01053603596717743 -0.00110374845907607 -0.0002658744504533138
0.01127457729406681 -0.001352230554425491 -0.000225737363584644
0.01210740418457718 -0.001646937738703915 -0.0001712658004245021
0.01304615698674475 -0.001994986893069814 -9.915264961986406e-05
0.01410382633275148 -0.002404304031061703 -5.651485497522209e-06
0.01529485290082288 -0.002883620358366265 0.0001137737445199691
0.01663526133177367 -0.00344241746392115 0.0002648389941201971
0.01814274450638703 -0.00409080866936435 0.0004545620802439651
0.01983661949070414 -0.004839333177308037 0.0006914188671077131
0.02173763744841343 -0.005698640298899036 0.0009855780514325648
0.02386758541072147 -0.006679027046034225 0.001349355496102905
0.02624862432641003 -0.007789820199028627 0.001797953423233277
0.02890226741764567 -0.009038556803471364 0.002350051440733207
0.03184773136780066 -0.01042996392932951 0.003028079277145221
0.03509943349106268 -0.01196475331300152 0.003858482732009602
0.03866358344725995 -0.01363828375722926 0.004872201079004055
0.04253379418697747 -0.0154391791206276 0.006104708106745767
0.04668567201925018 -0.01734810548914124 0.00759514968862982
0.05107072727544466 -0.0193369182780122 0.009384633989719065
0.05561050517117342 -0.02136845325582606 0.01151355297284565
0.06019245751737067 -0.02339716653046426 0.01401761241176543
0.06466981319200533 -0.02537059029598757 0.01692254551891004
0.06886854993058081 -0.02723113839686147 0.02023814898059877
0.07260536422607314 -0.0289169864983483 0.0239527196202107
0.07572180212666278 -0.03035974525757792 0.02802942339155314
0.07814335785638449 -0.03147547752467187 0.03240666786191563
0.07998416467857265 -0.03214473444570533 0.03700559371885273
0.0817542015163652 -0.03217788749899868 0.04175202816831721
0.08483824894630904 -0.03126918059268209 0.04663961144497383
0.0927981618905319 -0.02897582856298379 0.05195440996304396
0.1156633817060717 -0.02488121590267549 0.05934470281671874
0.1893177795836177 -0.01946434650985181 0.07978340830654153
0.5416174351177186 -0.01730545973677895 0.2489910293908208
0.7837417865649552 -0.05064259910440851 -0.2417349572498612
0.3118047838810123 -0.0719550429810657 -0.02847543731430728
0.1845317115636831 -0.0764926656753227 -0.001052647685817486
0.1250641457911383 -0.07367825292399233 0.007063117998730125
0.09002218348552686 -0.0676401012114045 0.010394586419989
0.06690071633649221 -0.06053344743907874 0.01174294878017362
0.05068452174628662 -0.05342888043096771 0.01204372525877575
0.03890610809307408 -0.04680932820864857 0.01173514525551818
0.03017699311153796 -0.04085634519095527 0.01106704220327472
0.0236379569083767 -0.03560399396972436 0.0101971421389287
0.01871829860443077 -0.0310180414144871 0.009229585062459489
0.01501833473939606 -0.02703591410067965 0.0082338691739952
0.01224714202742644 -0.02358661493939909 0.007255818889135573
0.01018714354554709 -0.0206004045864987 0.006324658916719865
0.008672595933729767 -0.0180132062783286 0.005457892485625902
0.007575707844093451 -0.01576826539111743 0.004664820594908848
0.006797230707256925 -0.01381641090475481 0.003949088727059416
0.006259793953392164 -0.01211561448555028 0.003310489718936474
0.005902988074393717 -0.0106302464803688 0.002746203730017037
0.005679655918901043 -0.00933023781734294 0.002251829473828184
0.005553105789505503 -0.008190248924867393 0.001822163272498429
0.005494977231891939 -0.007188919312569182 0.001451594451602484
0.005483494508356448 -0.00630819826587947 0.001134265784434817
0.005502054371583 -0.005532774541875332 0.0008643640293327264
0.00553817174570773 -0.004849598837681036 0.000636499727822502
0.005582674726563259 -0.004247488451751638 0.0004457496898371919
0.005629012515122212 -0.003716798499599017 0.00028753182843307
0.005672657473260924 -0.003249164023872379 0.0001575668096601582
0.005710637999022257 -0.002837288031197358 5.189050234055866e-05
0.005741170198305741 -0.002474771459601986 -3.300726585429336e-05
0.005763395839600152 -0.00215597563424626 -0.0001001380244183558
0.005777187726540505 -0.001875912238177584 -0.0001521346503794483
0.005782943112755247 -0.001630150140734157 -0.000191457202214011
0.005781408087485543 -0.001414744897689831 -0.00022054075984488
0.005773548090919063 -0.001226179555560308 -0.0002416402807594201
0.005760441172314332 -0.001061316271168825 -0.0002566805928422872
0.005743234723549998 -0.000917355977868096 -0.0002671847540627752
0.005723136974244224 -0.0007918027861321311 -0.000274305212778898
0.005701395950816877 -0.0006824322147198335 -0.000278973066586434
0.00567927246742725 -0.00058727227506155 -0.0002818840218437846
0.005657980811502998 -0.0005045870882276956 -0.0002835684234946013
0.005638672633500051 -0.0004328578115676665 -0.0002845226246430787
0.005622472470152155 -0.0003707656928662733 -0.0002850221066204304
0.005610468702201985 -0.0003171792609857488 -0.0002850201464021764
0.005603735052807066 -0.0002711385555588541 -0.0002844342676889634
0.0056033752094569 -0.0002318395140824927 -0.000283284593275939
0.005610500733328787 -0.0001986193979499092 -0.0002817073625356601
0.005626209738790783 -0.0001709489485937128 -0.0002801560830842515
0.005651597459975858 -0.0001484284145189844 -0.0002793211024903199
0.005687752562065573 -0.0001307845036215038 -0.0002798030344102013
0.00573577150823694 -0.0001178740669599552 -0.0002819955570232998
0.005796823366699604 -0.0001096915749937459 -0.000285962163249454
0.005872201318650691 -0.0001063702045109361 -0.0002913207210385668
0.005963354320247202 -0.000108185823898412 -0.0002974559550700859
0.006071939617263585 -0.0001155657155317408 -0.0003038048434943463
0.006199831453358405 -0.0001290968349301831 -0.0003099367791072991
0.006349095243589977 -0.000149536981646913 -0.00031568366620912
0.006522015097120555 -0.0001778353589054549 -0.0003212245504225657
0.006721128075872296 -0.0002151574617635246 -0.0003267478894471293
0.0069492457216168 -0.0002629140578348286 -0.0003322104456758008
0.007209534018446555 -0.0003227987196098401 -0.0003374672910177095
0.007505615968536647 -0.0003968256395421751 -0.0003421362955168596