# OOMMF: rectangular mesh v1.0
# Segment count: 1
# Begin: Segment
# Begin: Header
# Title: 
# Desc: time = 7.578630004375222e-11
# Desc: stepsize = 5.0554053560955e-13
# Desc: step = 140
# meshunit: m
# valueunit: (none)
# valuemultiplier: 218512.3683023399
# xmin: 0
# ymin: 0
# zmin: 0
# xmax: 4e-07
# ymax: 1e-07
# zmax: 4e-09
# ValueRangeMaxMag: 1
# ValueRangeMinMag: 0.003874178830873101
# meshtype: rectangular
# xbase: 2e-09
# ybase: 2e-09
# zbase: 1e-09
# xstepsize: 4e-09
# ystepsize: 4e-09
# zstepsize: 2e-09
# xnodes: 100
# ynodes: 25
# znodes: 2
# End: Header
# Begin: Data Text
0.8319203850633299 -0.5365880349360762 -0.140285240028324
0.249450608983329 -0.3661906845123205 0.06859893184737099
0.117160343103947 -0.294180609512818 0.0831326357346652
0.06294605278169435 -0.2485152923600756 0.07970744531823255
0.03491863390638392 -0.2131287646929162 0.07280938509073617
0.01874906995800736 -0.1835546789206052 0.06519746710798636
0.008911335745931356 -0.1581610634396996 0.05770888757187713
0.002808001678834755 -0.1361508163082837 0.05065583482603895
-0.0009501787963969953 -0.1170150847728658 0.04415855488961552
-0.003175582160328429 -0.1003660492578885 0.03825329360470102
-0.00437442668014611 -0.08588158168172635 0.03293544518151194
-0.004877073618695995 -0.07328502305291235 0.02817971227508552
-0.004906598690543656 -0.06233624076766755 0.02395052870063126
-0.004617493232675444 -0.05282632248478227 0.02020784921732179
-0.004118766553411725 -0.0445735133139768 0.01691043102450064
-0.003488352961708452 -0.03741968371329517 0.01401769593596187
-0.002782431487811381 -0.03122718056588027 0.01149078889552965
-0.002041637279972174 -0.02587601900715459 0.009293094811987736
-0.001295297692350178 -0.02126142543973908 0.0073904708333582
-0.0005643986064741494 -0.01729170194707546 0.005751322339792111
0.0001363044798034116 -0.01388641097711084 0.004346524391106121
0.0007967586646734995 -0.01097481378411018 0.003149328762802034
0.001410480086921223 -0.00849456643360344 0.002135293692027988
0.001973705973074928 -0.006390618329993634 0.001282097267214225
0.002484763915177531 -0.004614278469126681 0.0005695023016928822
0.002943576587822419 -0.00312246338263831 -2.070602705692306e-05
0.003351280522525028 -0.001877051710388742 -0.000504871717393056
0.00370994854880131 -0.0008443566874623096 -0.0008974838793586983
0.004022335646979063 5.327018383500211e-06 -0.001211271354373638
0.004291679673110233 0.00069810780395581 -0.001457428827242036
0.00452154070776526 0.001256875221606146 -0.00164580789534684
0.00471563413678769 0.001701660185928453 -0.001785049689803673
0.004877686557700031 0.002049956442618335 -0.001882896783941125
0.005011330501237719 0.00231707855317032 -0.001946418110830888
0.005120048662842334 0.002516458784635901 -0.001981927241628996
0.005207125520927768 0.002659869548494111 -0.001995007424281468
0.005275658347352906 0.002757595990331674 -0.001990535121305824
0.005328629291499198 0.002818537570937017 -0.001972551985387449
0.005368918507314698 0.002850305407559204 -0.001944211951016047
0.005399286252125438 0.002859295201430295 -0.001907950483048582
0.005422331097249209 0.002850823620489683 -0.001865876041192596
0.005440432527289898 0.002829365271699318 -0.001819992401894764
0.005455745784920279 0.002798727952843225 -0.001772150965514531
0.005470212846224102 0.002762162870713996 -0.001723975183831514
0.005485639817973628 0.002722400696074245 -0.001676667394508718
0.005503843594388157 0.002681598347946086 -0.001630923011305506
0.005526678729861519 0.002641346741723851 -0.001587172140062129
0.005555948069024761 0.002602731138018647 -0.001545751544308547
0.005593349092411506 0.002566431068872256 -0.001506926672275039
0.0056405260755232 0.002532908226538298 -0.001470937809989326
0.00569922877265363 0.002502398400382919 -0.001437868692567273
0.005771403044899542 0.002474629071406012 -0.001407435612057379
0.005859099874082878 0.002448759310587796 -0.00137907289718886
0.005964429539711091 0.00242362614760635 -0.00135214086536779
0.006089706478319837 0.002397797017127913 -0.001325876714867913
0.006237602485173198 0.002369367039640261 -0.001299281343188108
0.006411154532755328 0.002335811084270589 -0.001271183894160465
0.006613700116559192 0.002293902700666203 -0.001240178345719148
0.006848910656295486 0.002239632631980227 -0.001204339748346719
0.007120944108573227 0.002168148719458276 -0.001161154634318541
0.007434580532990852 0.002073647291927018 -0.001107663210963951
0.007795318665688056 0.001949196850628471 -0.001040502217050263
0.008209461227109619 0.001786494000095021 -0.0009558089345061829
0.008684158839486261 0.001575536160129101 -0.0008489930703657932
0.009227475471333008 0.001304294011932049 -0.0007144771647703433
0.009848510049182625 0.0009583939707211168 -0.0005454703109137712
0.01055753642436703 0.0005207812823198439 -0.0003336774730735651
0.01136617215341959 -2.86327115548904e-05 -6.913797056967885e-05
0.01228755606250732 -0.0007134350401724834 0.0002598167301037943
0.01333651104816258 -0.001561279671541484 0.0006667719069715633
0.01452966048730539 -0.002604521357039966 0.001167592659176574
0.01588547966600271 -0.00388092918104164 0.00178083098080595
0.01742431871700074 -0.005434438784014756 0.00252818666774455
0.01916834590805372 -0.007315907247750364 0.003435135126061381
0.0211413732008238 -0.009583814509944607 0.00453158778044476
0.02336855038508057 -0.01230489164976411 0.005852420430345391
0.02587584139253831 -0.01555463525661797 0.007438066160695458
0.02868919555799027 -0.01941760071884513 0.009335043008705309
0.03183331575610027 -0.02398743808913288 0.01159631978096458
0.03532991738922366 -0.02936652338957112 0.01428159183754009
0.03919534579552602 -0.0356650687285009 0.01745731542132255
0.04343747159587501 -0.04299959341554205 0.02119634383827402
0.04805182143092913 -0.05149063759811114 0.02557707603837038
0.05301698478039417 -0.06125964781456512 0.03068192196473338
0.05828953679282756 -0.07242504826439387 0.03659483498652262
0.06379890291073878 -0.08509758732743748 0.04339788032515134
0.06944288886622781 -0.09937511818323196 0.05116672485585575
0.07508482174165301 -0.1153370339710859 0.05996522060796606
0.0805533720476765 -0.1330384006213069 0.06983952591527162
0.08564592925011917 -0.1525034898744854 0.08081237942710175
0.09013585036217811 -0.1737174801167199 0.09287847475543733
0.09378298739658671 -0.1966133208840379 0.1060017807717656
0.09634623770662516 -0.2210470600544671 0.1201154099033651
0.09759803329309361 -0.2467466265205556 0.1351241213648599
0.09734877850779465 -0.273197724999208 0.1509097586485011
0.09552326757256269 -0.2993669716107959 0.1673452056719871
0.09248372561936356 -0.3229357096356288 0.1843576681216882
0.09066720616405151 -0.3376935686884752 0.2023529765852134
0.1060540848646999 -0.3212351043090675 0.2266840764192993
0.3335188559078374 -0.132686390322011 0.3584722573781953
0.8788233466160121 -0.1881282330788196 -0.2402735099543845
0.3097361648031701 -0.1713488980089275 -0.005877231574917267
0.1562395919638959 -0.1425002459537588 0.01920629242182246
0.09149952865220734 -0.1192431849044152 0.02318245175824297
0.05768561762570654 -0.1009672871789643 0.0228964360941867
0.03771473744359781 -0.08611720058517765 0.02139090083248138
0.02502985041423458 -0.07374088152128722 0.0194984191669458
0.0166304561847601 -0.06327746275368475 0.01751290054067564
0.01095240869641316 -0.05436331490919039 0.01555978235079973
0.007094763407190255 -0.04673650969971192 0.01369998297112852
0.004497564519695658 -0.04019357790883172 0.01196451520461956
0.002792353106244856 -0.03456944349741317 0.01036819799879405
0.001726231173783244 -0.02972722632592809 0.008916117533744992
0.001120178186387591 -0.02555227411234438 0.007607251303066528
0.0008445952055802622 -0.02194811063732194 0.006436707525296662
0.0008041517227975496 -0.01883335310118308 0.005397193215042395
0.0009279536457258043 -0.0161392255477085 0.004480036255458215
0.001162922730961838 -0.01380748544599681 0.003675844166024212
0.001469212735962448 -0.0117886883582522 0.002974955071332655
0.001816939711725734 -0.01004073438934678 0.00236776292402592
0.002183810236985523 -0.008527651414712263 0.001844882660640293
0.002553371826364927 -0.007218589589506534 0.001397282736916642
0.002913685154871409 -0.006086984651063317 0.001016431780992404
0.003256318650723815 -0.005109870245165409 0.0006942926768292767
0.003575577778424514 -0.004267313084188464 0.0004234561125527248
0.003867893939205341 -0.003541954521806363 0.0001972303511022048
0.004131349497063699 -0.002918634029297502 9.611032197409135e-06
0.004365323908890068 -0.002384089058500885 -0.0001446280743012364
0.004570181896618678 -0.001926706450950193 -0.0002699351456499831
0.004747034587008175 -0.001536315292258756 -0.0003701390222572365
0.004897561668801203 -0.00120400971431403 -0.0004485879441588501
0.005023822183932686 -0.0009219900783922118 -0.0005082121651485911
0.005128101531817027 -0.0006834171976246847 -0.0005517756785748359
0.005212793853680731 -0.0004822817272461471 -0.0005820384273303904
0.005280307247077771 -0.0003132886003955539 -0.0006015779770103582
0.005332979086715916 -0.0001717654265985953 -0.0006127213930856152
0.005373044943033392 -5.359411226846014e-05 -0.0006174993101462238
0.005402685145269416 4.483377633347451e-05 -0.00061746727093574
0.005424031765856222 0.0001266525816566417 -0.0006136183321518168
0.00543915827140463 0.0001945562197455175 -0.0006065378274441687
0.005450080471373098 0.0002508445344358743 -0.0005968090147252185
0.005458712170441683 0.0002974850762475211 -0.0005852159314257568
0.005466828225540101 0.0003361707267415672 -0.0005726352929222248
0.005476038845941298 0.0003683595514459707 -0.0005598914623675836
0.005487817755297364 0.0003952938752921114 -0.0005475067319470732
0.00550363558942854 0.000417998364339905 -0.0005356067186331455
0.005525017025006904 0.0004372804361723485 -0.0005242050722141806
0.005553477789451475 0.0004537449473631697 -0.0005133869817766719
0.00559051137820427 0.0004678252498604885 -0.0005033051440932866
0.005637615230811631 0.000479823813622673 -0.0004941844956817774
0.005696311505745112 0.0004899132963694754 -0.0004861721493159194
0.005768216264871711 0.0004980851947581435 -0.0004791452036920327
0.005855101694157464 0.0005041280644868919 -0.0004728317131836562
0.005958886723535192 0.0005076645331267191 -0.0004670098630281093
0.006081651346708113 0.0005081650898367816 -0.0004614483200840502
0.00622572996246969 0.000504907019654527 -0.0004558212064678301
0.006393754651851676 0.0004969239217513369 -0.0004498330149789287
0.00658861049694316 0.0004829673108153218 -0.0004431715540806715
0.006813475901064944 0.0004614762840430378 -0.0004352150952117354
0.007071966460945701 0.0004305522232400896 -0.000424985072527255
0.007368234914302368 0.0003879163708378967 -0.0004113689389712498
0.007707028849081496 0.0003308451652761349 -0.0003932426020823255
0.008093733292602425 0.0002560837970774687 -0.0003694588764476671
0.008534392452619926 0.0001597384378888904 -0.0003386934667018345
0.009035781606901959 3.716428541051506e-05 -0.0002992680275310318
0.009605527637250873 -0.0001171395782856401 -0.0002490118455897588
0.01025223987925599 -0.0003096409844171892 -0.000185081458827048
0.01098564583308118 -0.0005478906565191721 -0.000103936770535636
0.01181671297390113 -0.0008406603386275188 -1.489991414061345e-06
0.01275776994335938 -0.00119810622677874 0.0001268939684062737
0.0138225899543914 -0.00163194538645838 0.0002865177933232153
0.01502642688547249 -0.002155631240133046 0.0004835137573677355
0.0163860494333274 -0.002784516116005636 0.0007250562939504325
0.01791971997895159 -0.003535977466666802 0.001019740443512727
0.01964708658639425 -0.00442948960698691 0.001377969640768182
0.02158896933030053 -0.005486614538018639 0.001812226728001891
0.02376697103634834 -0.006730889879038554 0.002337441397117598
0.02620282680165594 -0.008187578632467659 0.002971332820541187
0.0289174023876601 -0.009883262399222083 0.003734652436006096
0.03192924646553436 -0.01184523905456788 0.004651481534501093
0.03525254584103555 -0.01410071102969552 0.005749457108536877
0.03889438929756132 -0.01667576953932899 0.007059838332163579
0.04285125803716879 -0.01959421293201436 0.008617370630437158
0.04710473249941862 -0.02287627791969174 0.01045979574197989
0.05161659880134215 -0.02653742899976675 0.01262675987240671
0.05632374691084966 -0.03058735616815194 0.01515807066614126
0.06113361182363875 -0.03502932205398187 0.01809107964600296
0.06592126033379858 -0.03985986111600269 0.02145722426685202
0.07052957758889859 -0.0450684924437878 0.02527797592537246
0.07477415128002457 -0.05063653740111797 0.02956062784656314
0.07845448129451114 -0.05653307117736323 0.03429478661594043
0.08137330204403841 -0.06270436187844192 0.03945055777573116
0.08336763782035385 -0.06905004461957012 0.04497962973794664
0.08436298281492473 -0.0753727502034815 0.05082090125027449
0.08448955233782754 -0.08127192804747105 0.05691500284631121
0.08439727032170015 -0.085909374922337 0.0632460068061753
0.08629737802414052 -0.08744848688106632 0.07000306774903423
0.0981813444623713 -0.08161754925598812 0.07846598793301317
0.1562874868268829 -0.05848468528161933 0.09870673653350143
0.5174811934385025 -0.006972269333432437 0.2715093332204291
0.8549551123702014 -0.1031057008358718 -0.2464201041168567
0.3235101308367311 -0.1126131938132785 -0.01644565160149998
0.1749241358908545 -0.1035480345331645 0.01070219802633507
0.108193863759779 -0.090575999643682 0.01649128595723413
0.07177492994037131 -0.07814506925999742 0.01752021423598099
0.04957476011148395 -0.06721706030573447 0.01700020521771309
0.03506651040023795 -0.05782043671624194 0.01587944391878719
0.02516363027944377 -0.04978342288464035 0.01451633920476701
0.01823057224441808 -0.04291452383612782 0.01307413776291935
0.01331678875413021 -0.03704067789838293 0.0116383550915042
0.009826821841327785 -0.03201224782630432 0.01025752311080467
0.007365048650649833 -0.02770131058892021 0.008959659228436867
0.005656665087020788 -0.0239990492877993 0.00776007915810126
0.004504468295280878 -0.02081327232405195 0.006665793486312428
0.003763594128941747 -0.01806616143301601 0.005678263336940602
0.003325870673427465 -0.01569222187498994 0.004795249089547548
0.003109624193235408 -0.01363644392693 0.004012124163974919
0.003052757947706864 -0.01185265987833613 0.003322763768268372
0.003107904077285398 -0.01030211019126086 0.002720171231219365
0.003238920837882068 -0.008952207870096322 0.002196940397665489
0.00341831497829901 -0.007775483017418517 0.001745526965688634
0.003625314504321974 -0.006748705601177225 0.001358458935150039
0.003844388080506102 -0.005852148660041686 0.001028544603431141
0.0040641101846298 -0.005068981862609381 0.0007489132798596
0.004276280700335425 -0.004384774875197531 0.0005131790613507565
0.004475222411891123 -0.003787094154583628 0.000315559129923979
0.004657230166571686 -0.003265173342261017 0.0001508629587545436
0.004820155237141059 -0.002809653167118624 1.459643308161441e-05
0.004963046798349632 -0.002412369079249856 -9.702810320263802e-05
0.005085876476132001 -0.002066177106624454 -0.0001872398009343523
0.005189335229024599 -0.001764813220329223 -0.0002588476715273739
0.00527462575055149 -0.001502771736214379 -0.0003143020667907221
0.005343294594341189 -0.001275200268024313 -0.0003559387533955129
0.005397100325691311 -0.001077810741551597 -0.0003861421194229079
0.005437900631163318 -0.0009068029276759033 -0.0004071632098198196
0.005467550054442917 -0.0007588029468942641 -0.0004210454919004407
0.005487849733371546 -0.0006308146716497038 -0.0004295697940601334
0.005500579338358041 -0.0005201864912161559 -0.0004340706017258142
0.005507499838175174 -0.0004245844637764284 -0.000435345799017008
0.005510345037417981 -0.0003419683244430407 -0.0004338082795669768
0.005510831676183895 -0.0002705660534892845 -0.000429889095017024
0.005510619854826869 -0.000208840770561551 -0.0004242505650463876
0.005511267920631628 -0.0001554601347350145 -0.0004176731102768213
0.005514194477423256 -0.0001092730148462758 -0.0004109089196062931
0.005520691256764935 -6.929054105494031e-05 -0.0004044246205291582
0.005532047103231025 -3.468121641920797e-05 -0.0003983048172678628
0.005549609279594699 -4.770653429462651e-06 -0.0003925302402701488
0.00557473117744478 2.096490333254724e-05 -0.0003871598625416566
0.005608771783350861 4.291102264264968e-05 -0.0003823275168621767
0.005653114032631748 6.133482537170091e-05 -0.0003782781836770854
0.005709146198220124 7.639321112346444e-05 -0.0003752054980076521
0.005778318220324084 8.810957434686048e-05 -0.0003730216790404733
0.005862242065285853 9.635594299188749e-05 -0.0003714756289234946
0.005962698682158417 0.0001008654269281044 -0.0003704046557070969
0.006081618213032407 0.0001012395498900934 -0.0003696756816728277
0.006221146994314628 9.692636209097831e-05 -0.0003690845446745845
0.006383693611134336 8.718855904647158e-05 -0.0003684667200672195
0.006571893043432643 7.107545140506936e-05 -0.0003676567759264278
0.006788651945393105 4.740321920101606e-05 -0.0003661972832154226
0.007037286466058781 1.473505932040217e-05 -0.0003633227641842973
0.007321606110045243 -2.865133647414204e-05 -0.0003581892677768736
0.007645955377000646 -8.480771300858671e-05 -0.000350011850139175
0.00801524037289411 -0.0001561700920641149 -0.0003380423218154864
0.008434942131643797 -0.0002456264236819139 -0.0003214125815190103
0.008911189959899072 -0.0003565845134359091 -0.0002989639772311882
0.009450882746645288 -0.0004930382203168694 -0.0002691487415027282
0.01006181878504922 -0.0006596356450373346 -0.0002298657657290673
0.01075282328128265 -0.0008617469198332182 -0.0001784633555259558
0.01153385515173065 -0.00110553903894032 -0.0001118943662814236
0.01241611942554065 -0.001398057581948017 -2.675629086764446e-05
0.01341215239362502 -0.001747306816907712 8.080275770879918e-05
0.01453587502309074 -0.002162314146375528 0.0002152246012472206
0.01580266001068419 -0.002653166541293636 0.0003817488708514577
0.01722935965265124 -0.003231001831047506 0.0005867607100169976
0.0188342705284185 -0.003907936307052008 0.0008381559536970203
0.02063701504772617 -0.004696908685005133 0.001145592360736697
0.02265827227721795 -0.005611415284737377 0.001520874354805244
0.02491927304107331 -0.00666510596103438 0.001978305311204966
0.02744096838103316 -0.007871228771600413 0.002534982041210092
0.03024276846383187 -0.009241893370896547 0.003211167781067414
0.03334067997662925 -0.01078715373159506 0.004030644530179014
0.03674471907874023 -0.0125139293226817 0.005020929361482401
0.04045547164667114 -0.01442482623219005 0.006213331705348269
0.04445973951129183 -0.01651695419507839 0.007642659551171488
0.04872540910689611 -0.01878092882168199 0.009346310464573621
0.05319592223620067 -0.0212002388735098 0.01136263017004411
0.05778517209855635 -0.02375117652386101 0.01372825961862278
0.06237414633524458 -0.02640340053618916 0.01647442532407073
0.06681122906425016 -0.02912087494622635 0.01962238891895882
0.07091854166260046 -0.03186238893340341 0.02317850372594332
0.07450719289162651 -0.03457988895537489 0.02712989157081068
0.0774051900760121 -0.03721149716668287 0.0314420039559493
0.07950509102999566 -0.0396639842414454 0.03605975315039979
0.08084986043060267 -0.0417760058319579 0.04091465231569252
0.08181206806698879 -0.04324707246837362 0.04594415907310422
0.0835408322303976 -0.04350678476946646 0.05114738361799697
0.08927839225106368 -0.04149530782097373 0.05679198466899058
0.108979161961418 -0.03543855824412793 0.06445841911879606
0.1803890097089648 -0.02356157232128279 0.08516130535690597
0.5420850784965434 -0.01030702761326677 0.2582577450105867
0.821034203241915 -0.0685646805968305 -0.2444301773301392
0.3209038116970423 -0.08644863970966324 -0.02227032144625698
0.1827380027451852 -0.08637807063285265 0.005312431599241768
0.1186988847391932 -0.0795905161977119 0.01237298096911661
0.08217176739746117 -0.07082029670766379 0.01452884004303654
0.05899931306359386 -0.06203888514770132 0.01486313147669758
0.04333685240737495 -0.05396846900895032 0.01436326704175758
0.0323237502749016 -0.04681293006673676 0.01344665460214755
0.02439260267949351 -0.04057310887768253 0.01232516554337399
0.01860658333163882 -0.03517529265662472 0.01112007399165202
0.01436494454881944 -0.03052310241696956 0.009905533766232327
0.01126030948548901 -0.02651861012684959 0.008727872694875786
0.009004408006693318 -0.02307083374632572 0.007615519103691451
0.007386801973828624 -0.02009880629130936 0.006584878296049146
0.006250445670006101 -0.01753220299923741 0.005644134474311271
0.005476358188542161 -0.01531084458611489 0.004795841724961008
0.004973498295270195 -0.01338372326236165 0.004038776017034709
0.00467178309940594 -0.01170785333582377 0.003369215681789663
0.004517115858736422 -0.01024712254417603 0.002781851504816686
0.004467734114416316 -0.00897122391434186 0.002270455201127535
0.004491477261403742 -0.007854697169684803 0.001828303197800629
0.004563712985117027 -0.00687611035764481 0.001448491132614218
0.00466572383159778 -0.006017356826675702 0.00112422155052684
0.00478345523806654 -0.005263070639795637 0.000848901001906604
0.00490653431924378 -0.00460014340212915 0.0006163400727807308
0.005027482348521802 -0.00401733177892718 0.0004209004459441285
0.005141092219271569 -0.003504932405078075 0.0002575070223059755
0.005243953730311469 -0.003054530552424958 0.0001217594595357332
0.005334049825851275 -0.002658791033354644 9.953737384417903e-06
0.005410443843931621 -0.002311291348296156 -8.105800924323557e-05
0.005473048858017565 -0.002006387533769701 -0.0001540075011321946
0.005522399950757032 -0.001739102757684378 -0.0002112724610005846
0.005559469433311633 -0.001505032463452745 -0.0002551175436017873
0.005585520426464221 -0.001300268034041685 -0.0002878591394039123
0.005601979504473638 -0.00112133168282948 -0.0003116907989190478
0.005610322368908158 -0.0009651243853881377 -0.0003286044553243927
0.00561201079425236 -0.0008288825340908685 -0.0003403336270044112
0.005608513606417855 -0.0007101487138002753 -0.0003481696453204972
0.005601306098706727 -0.0006067452789348992 -0.0003528734006365501
0.005591860069379006 -0.0005167529741674093 -0.0003548200887852697
0.005581656010325882 -0.0004384899919352609 -0.000354404817576204
0.005572145517275848 -0.0003704872133410926 -0.0003522564262903923
0.005564701874156803 -0.0003114665992599744 -0.0003491328993895865
0.005560577520738891 -0.0002603233906328247 -0.0003457675338208329
0.005560910519037051 -0.000216107977466779 -0.0003426169656768359
0.005566839926052003 -0.0001780188173988649 -0.0003397628272210007
0.005579565778759038 -0.0001454004310720001 -0.0003371897768109336
0.005600301560997529 -0.0001177382615152296 -0.0003349478142602137
0.0056302810517089 -9.465178612259524e-05 -0.0003331644736343145
0.005670775144765761 -7.588052650717359e-05 -0.0003321001904839856
0.005723052576115407 -6.127731936588052e-05 -0.000331989323462501
0.00578842453125854 -5.082403773703419e-05 -0.0003327633855884514
0.005868363089018946 -4.464507197166913e-05 -0.0003341764384997412
0.0059645189050743 -4.299902501727203e-05 -0.0003360872120330086
0.006078683497032771 -4.627826713499141e-05 -0.0003384229608888314
0.006212838915283854 -5.502742081283535e-05 -0.000341049948090783
0.006369202811377634 -6.996883363406223e-05 -0.0003438785141062111
0.006550198141633271 -9.20249218572206e-05 -0.0003468016552576252
0.006758501983494826 -0.000122337172139436 -0.0003494272887449229
0.006997176942787064 -0.0001622836499994016 -0.0003510812337753066
0.007269743293458143 -0.0002135108948377728 -0.0003510607758706466
0.0075802112660123 -0.000277972763806959 -0.0003487573786592673
0.00793309834802987 -0.0003579771914931489 -0.0003436327309116469
0.008333437754973081 -0.000456240382603048 -0.0003350315497452147
0.008786852717743942 -0.0005759425315923293 -0.0003220340716875109
0.009299678250378248 -0.000720779133516047 -0.0003033715020744717
0.009879091733482405 -0.0008950183800044294 -0.0002772913685578655
0.01053323805039235 -0.001103555404400808 -0.0002415602916455435
0.0112713323538085 -0.001351969732114859 -0.0001936384297539119
0.01210377498584177 -0.001646580888523906 -0.0001307206316205467
0.01304224798110094 -0.001994497026855265 -4.966305083598003e-05
0.01409979403813388 -0.002403642276666338 5.317399206468353e-05
0.01529092392279956 -0.002882754338336809 0.0001821198539801996
0.01663170047020015 -0.003441329033522552 0.0003425478716961412
0.01813978035476092 -0.004089500117259889 0.0005412235287351591
0.01983439470986476 -0.004837830721479083 0.0007865725225789591
0.02173620447441206 -0.005696995105046958 0.001089072834241265
0.02386694579128744 -0.006677310481056696 0.001461646539210928
0.026248771483067 -0.007788113252642464 0.001920007105446226
0.02890317623882516 -0.009036937865610549 0.002483134825430556
0.03184931319006411 -0.01042849770897708 0.003173740040062593
0.03510154923776568 -0.01196347980943293 0.004018637265824792
0.03866608051207458 -0.01363720825251559 0.005048972347458189
0.04253648925520712 -0.01543826700815184 0.00630011977982744
0.04668831658879594 -0.01734728244381237 0.007810919035815502
0.05107299554402441 -0.01933607480932979 0.00962211107209817
0.05561200235526112 -0.02136745478842649 0.01177358730370084
0.06019272187600347 -0.02339586971922755 0.01430035505137557
0.06466833656685089 -0.02536886509089137 0.01722734049429861
0.0688648128487778 -0.02722889380761158 0.02056349614824792
0.07259889248940506 -0.02891419726809786 0.02429631112474521
0.07571222079497233 -0.03035647597347274 0.02838826449220924
0.07813043575477235 -0.03147190043199913 0.0327773192241818
0.07996781242986818 -0.03214114001034064 0.03738455103521378
0.08173440114732337 -0.03217469055798624 0.04213620247358097
0.08481487002807216 -0.03126692961190224 0.04702684562238353
0.09277061588625042 -0.02897522649295991 0.05234378268676784
0.1156299570118385 -0.02488315661442774 0.05973564811294915
0.1892741360154283 -0.0194699833195259 0.08016874019312474
0.541552580352664 -0.01731667195226889 0.2492973236351464
0.7834238444681566 -0.0506403479604312 -0.2409197460913667
0.3117238581031971 -0.07196292287919429 -0.02764412158728999
0.1845088782663109 -0.07650938533066705 -0.000286690617696176
0.1250639312130126 -0.0737012186426802 0.007752218010986144
0.09003141789142499 -0.06766649650191374 0.0110099552603418
0.06691330798167272 -0.06056093540245778 0.01229082805295004
0.0506974734647625 -0.0534558020953302 0.01253060447042283
0.03891797461882774 -0.04683463547108267 0.01216709766343114
0.03018715217552684 -0.04087945309691547 0.01144961714157911
0.02364622837143553 -0.03562463632928804 0.01053541255904423
0.01872473494508812 -0.0310361575381988 0.009528194672047565
0.01502310861253009 -0.02705156785403583 0.008497100492479155
0.01225047600870615 -0.02359994103805674 0.007487629916533441
0.0101892718259106 -0.0206115744915865 0.006528738754531209
0.008673742861797434 -0.01802240829924319 0.005637726578049852
0.007576091884246933 -0.01577569354588954 0.004823702914078735
0.006797060058443822 -0.01382226023321278 0.004090114935464244
0.00625924609094552 -0.01212007906731001 0.003436543854893704
0.005902216778692003 -0.01063351949852182 0.002859992133691203
0.005678825828273189 -0.00933251074366461 0.002355835515649381
0.005552395833233821 -0.008191708949894072 0.001918451107217695
0.005494538120452735 -0.007189745758369765 0.001541680030213689
0.005483429034717741 -0.006308558221007619 0.001219220941449074
0.005502452598697498 -0.005532817338631251 0.0009448108213264717
0.005539125127125526 -0.004849451248613892 0.0007124724279619024
0.005584225945100759 -0.004247250438731334 0.0005167063803240331
0.005631104507507073 -0.003716542705136707 0.0003525318398291
0.005675147045886045 -0.00324893692369126 0.000215611398536504
0.005713327041778988 -0.002837113425086054 0.0001022886436027435
0.005743854299930092 -0.002474653688185518 9.457868357486622e-06
0.00576591467765827 -0.002155906349441031 -6.557423984499019e-05
0.005779421388461005 -0.001875876782489022 -0.0001251510795330934
0.005784811578717739 -0.001630132106564044 -0.0001715000121860511
0.005782884676352606 -0.001414729281022533 -0.0002068995703591135
0.005774661947394449 -0.00122615276967809 -0.0002335122736758362
0.005761261213511316 -0.001061263229908387 -0.0002533009180603803
0.005743823365737403 -0.0009172585535541239 -0.0002679686539565923
0.00572352410456696 -0.000791642428667189 -0.0002787843489174299
0.005701570261648277 -0.0006821991068775071 -0.0002864889509406165
0.005679188414714079 -0.0005869704881200167 -0.0002914418180175826
0.005657635543432462 -0.0005042328208246061 -0.0002940160457302274
0.005638161693485578 -0.00043247597071223 -0.0002948205704444292
0.005621957450250202 -0.0003703839563228063 -0.0002945964445201511
0.005610108289956053 -0.0003168190070750657 -0.000294063675352043
0.005603598480140803 -0.0002708078409481297 -0.0002936664185267221
0.005603420191946527 -0.0002315313851730633 -0.0002934926233882464
0.005610629594750925 -0.000198318834556854 -0.0002935331908455769
0.005626302670351586 -0.0001706429860122748 -0.0002938380892943996
0.005651546199764744 -0.0001481103864757156 -0.000294525008382428
0.00568751127647032 -0.0001304542812200699 -0.0002958671755968007
0.005735341755094493 -0.0001175364226185691 -0.0002981276161352185
0.005796213590364896 -0.0001093545056182338 -0.0003012635372801962
0.005871462161127766 -0.000106042713194841 -0.0003050278432048714
0.005962603110479902 -0.0001078727734601402 -0.0003092954651829563
0.006071283187069214 -0.0001152624827507945 -0.0003140354226096178
0.006199319563404005 -0.0001287907905132255 -0.000319182093403082
0.006348742243561032 -0.0001492158934920738 -0.0003247049042517972
0.006521766910673606 -0.0001774984168990027 -0.0003305452365697064
0.006720846410070315 -0.0002148187844922261 -0.0003363483489804618
0.006948795276022723 -0.0002625973472156382 -0.0003415159034112742
0.007208851388279969 -0.0003225254225184688 -0.0003454555616944094
0.007504701648607577 -0.0003966040328428595 -0.0003477128461100736
0.007840492471349807 -0.0004871873176891667 -0.0003479167048703915