# OOMMF: rectangular mesh v1.0
# Segment count: 1
# Begin: Segment
# Begin: Header
# Title: 
# Desc: time = 1.0943067426310262e-10
# Desc: stepsize = 4.007785006266087e-13
# Desc: step = 220
# meshunit: m
# valueunit: (none)
# valuemultiplier: 218483.5992894577
# xmin: 0
# ymin: 0
# zmin: 0
# xmax: 4e-07
# ymax: 1e-07
# zmax: 4e-09
# ValueRangeMaxMag: 1
# ValueRangeMinMag: 0.003873988467405289
# meshtype: rectangular
# xbase: 2e-09
# ybase: 2e-09
# zbase: 1e-09
# xstepsize: 4e-09
# ystepsize: 4e-09
# zstepsize: 2e-09
# xnodes: 100
# ynodes: 25
# znodes: 2
# End: Header
# Begin: Data Text
0.8321053380478075 -0.5364076591613177 -0.1409522244784372
0.2494939620203852 -0.365937860871107 0.06794360198620768
0.1171835735956763 -0.2939411752126161 0.08255083966394365
0.0629634702149432 -0.2483023140101852 0.07920241953908494
0.03493398205606593 -0.2129431001536548 0.0723732803807897
0.0187636544031557 -0.183394148671665 0.0648208307824083
0.008925641294947597 -0.1580228227596737 0.05738305628314523
0.002822191806514905 -0.1360321028045015 0.05037343489462258
-0.000936075135697402 -0.1169134523012942 0.04391345628517469
-0.003161594211434078 -0.1002794129679498 0.03804041356302864
-0.00436061043911265 -0.0858081940323982 0.03275054743197641
-0.004863501071636252 -0.07322342451614224 0.0280192078349731
-0.004893353388275793 -0.06228520024186544 0.02381132359798067
-0.004604673411361063 -0.05278477997722955 0.02008720210441245
-0.004106486038189846 -0.04454051935174241 0.016805844483538
-0.003476745782931902 -0.03739434875960965 0.01392684258969558
-0.002771653477939613 -0.03120862386368444 0.01141145465185828
-0.002031858317673165 -0.02586332991693866 0.009223160073959203
-0.001286695004907514 -0.02125363498508778 0.007327926771209952
-0.0005571486002157379 -0.01728778695505355 0.005694315367883883
0.000142045575323541 -0.01388530005986497 0.00429345593965757
0.0008008903826160752 -0.01097541825288288 0.003098956996191969
0.001412993640716485 -0.008495842319463395 0.002086736217298101
0.001974688676478374 -0.006391661756672648 0.001234977301665729
0.002484388009248059 -0.00461441941378252 0.0005240183910693325
0.002942135990299976 -0.00312127654765566 -6.390812221761412e-05
0.003349208052121182 -0.001874384533554123 -0.000544889952174885
0.003707713205872549 -0.0008403824253417918 -0.0009333819769846152
0.004020336118463029 1.0141257339741e-05 -0.001242154181211308
0.00429021558684867 0.0007031772115574749 -0.001482601261042347
0.004520814240170991 0.001261667752245293 -0.001665066982830105
0.00471572251026365 0.001705763030885186 -0.001798828183745265
0.004878513513837218 0.002053109108635812 -0.001892074422394103
0.005012688937098144 0.002319159936280425 -0.001951926616639943
0.005121654354484759 0.002517468946131426 -0.00198451649400399
0.0052087416315127 0.002659920750599613 -0.001995253241459417
0.005277197845173285 0.002756872915703615 -0.001988913139439371
0.005330105100282231 0.002817217810117901 -0.001969514599127909
0.005370340062427512 0.002848510782891948 -0.001940303770565163
0.005400585398196643 0.002857142640964947 -0.001903750251126932
0.005423356930955455 0.002848486344309208 -0.001861753587677485
0.005441056904256438 0.002827073543916897 -0.001815949577284236
0.00545597733393936 0.002796704142027436 -0.001767772949176618
0.005470234152294503 0.002760500254231168 -0.001718622607445449
0.00548576340626628 0.002720977017033377 -0.001669962718565798
0.005504336995059663 0.002680122687857837 -0.001623001127604071
0.00552757008579703 0.002639512402224998 -0.001578480534375509
0.005557020040009037 0.002600392749225991 -0.001536846362380205
0.005594309870186225 0.002563703429461419 -0.001498270608910407
0.005641193507683464 0.00253003217435589 -0.001462604288119901
0.005699565596783037 0.002499540630328866 -0.001429611277075783
0.00577145779188974 0.002471930560655577 -0.001399057305660736
0.005859015761934279 0.002446414867711868 -0.001370591282309764
0.005964441096455938 0.002421738527215716 -0.001343773106880168
0.006090031035507357 0.002396250978456012 -0.001318044306148748
0.006238290049431081 0.002367906342650375 -0.001292483549146755
0.006412011240275472 0.002334198975056376 -0.001265656890564985
0.006614408280465172 0.002292037931610529 -0.001235754162281418
0.006849245810286073 0.002237584949634014 -0.001200657334489043
0.007120875249328613 0.002166117871501505 -0.001157846483145522
0.007434230975967909 0.002071860601953701 -0.001104531250867996
0.007794851322728748 0.001947833051586621 -0.001037762118590155
0.008208969247467208 0.001785693803022786 -0.0009540873536881438
0.008683655190280994 0.001575447286852855 -0.0008490941507137727
0.0092269607826588 0.001305090715916404 -0.0007171581746128316
0.009848052392714506 0.0009602415441636405 -0.0005512871067900343
0.01055731983358509 0.000523767375359587 -0.0003431278724703164
0.01136644449657407 -2.453648778924576e-05 -8.294555425723851e-05
0.01228851507255815 -0.0007083468443878018 0.0002407193770194764
0.01333822760841201 -0.001555384554399636 0.0006414496727694067
0.01453206075255791 -0.002598087415218897 0.001135366048110374
0.01588839184735054 -0.00387432450600653 0.001741505423444103
0.01742750640909168 -0.005428118723978682 0.002482037039494053
0.01917146983402819 -0.007310265648839086 0.003382615881046954
0.02114398983544835 -0.009578991579015241 0.004473092223248487
0.02337022832473333 -0.01230073299918738 0.005788328974728548
0.02587627628420525 -0.01555075540289048 0.00736865311356545
0.02868820891113357 -0.01941342236482248 0.009260170011016233
0.03183082400297353 -0.02398219082035942 0.01151533974278186
0.03532594629476317 -0.02935931405583347 0.01419346492833828
0.03919005632067133 -0.03565500412145096 0.01736072155029501
0.04343114194821397 -0.04298586742684817 0.02108978101717382
0.04804481750450727 -0.05147257957778022 0.02545897966594904
0.05300975896905014 -0.06123676788229016 0.03055081738543179
0.05828262821988495 -0.07239707939940404 0.03644950443485308
0.06379293227102514 -0.08506450562769821 0.04323745927171373
0.06943854321401725 -0.09933715280185001 0.05099079406845972
0.07508283379552239 -0.1152946628287064 0.05977387995669281
0.0805544801853833 -0.1329923421666293 0.06963343175564189
0.08565082342202714 -0.1524546783671848 0.08059274616029934
0.09014510107739512 -0.1736670274643883 0.09264702723039719
0.09379697680456617 -0.1965624596572061 0.1057606516213289
0.09636510061266489 -0.2209970675402153 0.1198669836214443
0.09762163556027338 -0.2466987227409271 0.1348708175232134
0.09737674707575199 -0.2731529378664137 0.1506537722899643
0.09555510448118414 -0.2993259411163595 0.1670882489892155
0.09251905448999295 -0.3228983597787853 0.1841008438711306
0.09070639570376395 -0.3376583864716751 0.2020973438401062
0.1061007531622772 -0.3211968196279574 0.2264350871988245
0.3336023995976789 -0.132623904831637 0.3582875688529772
0.8791163621530589 -0.1880985673834681 -0.2409844907083878
0.3097984103865149 -0.1712813877838861 -0.006572878296264165
0.1562568452095302 -0.142422298121321 0.01858528790874943
0.09150418054975937 -0.1191671926406068 0.02264089618159496
0.05768692806173022 -0.1008977796723699 0.02242690056522763
0.03771588227662136 -0.08605549201376365 0.02098390686612351
0.02503192098325641 -0.07368697641869866 0.01914512436717038
0.01663373570329071 -0.06323084625814331 0.01720569019083152
0.01095685421705743 -0.05432329910420289 0.01529225634621704
0.007100205936279511 -0.04670238930455063 0.01346677376972769
0.004503795160736563 -0.04016469762366474 0.01176109743432694
0.002799159169021161 -0.03454522232191713 0.01019069463191299
0.001733412308945414 -0.02970715960018558 0.008761153181047076
0.001127548548506242 -0.02553592423380845 0.007471813821997369
0.0008519841433131559 -0.02193509143290747 0.00631804373261729
0.0008113983881192419 -0.01882331192975563 0.005292741555288045
0.0009349030821850686 -0.01613182443380438 0.004387379114674668
0.001169427547061955 -0.01380238448005385 0.003592698983605113
0.001475128246359101 -0.01178553388681905 0.002899202432280478
0.001822121085489072 -0.01003915392982686 0.002297502947010543
0.002188124147573879 -0.008527255210141395 0.001778547532107769
0.002556715075363588 -0.007218979507518479 0.001333750213832226
0.002916000536701515 -0.006087775494368441 0.0009550106778544082
0.003257590649151008 -0.00511071885698235 0.0006348542889128358
0.003575843908564935 -0.004267944265960221 0.0003664943151030506
0.003867297216771123 -0.003542176335157571 0.0001437018766224248
0.004130144838724791 -0.002918354202438993 -3.931765248666327e-05
0.004363794711457517 -0.002383326598222405 -0.0001878628608457836
0.004568599303684705 -0.001925575915431531 -0.0003065408823157903
0.004745669403040443 -0.001534981629769642 -0.0003994819848174631
0.004896654685481491 -0.001202642137526518 -0.0004706282131056503
0.00502351962978087 -0.0009207350133610594 -0.0005236470261238612
0.005128407539884101 -0.0006823831243204832 -0.0005618048071369256
0.005213579762877355 -0.0004815318566227809 -0.0005878916115782219
0.005281362544404942 -0.0003128399795480743 -0.0006042168380947126
0.005334122152405548 -0.0001715947881956751 -0.0006128386908626462
0.005374205992654439 -5.365762848778701e-05 -0.0006156338537778738
0.005403858424502167 4.457714656337497e-05 -0.0006141238140759521
0.005425208876554484 0.000126232755908689 -0.0006094083630504019
0.005440288319995653 0.000194004521401286 -0.0006021084171249315
0.00545105379050654 0.0002502139078329365 -0.0005925348399284773
0.005459424705130865 0.000296854588023004 -0.0005809945515028661
0.005467253966974914 0.0003356208308149708 -0.0005678699643082225
0.005476258031196407 0.0003679317844315591 -0.0005537808726999455
0.00548802284719983 0.0003949636380091636 -0.0005396451664254794
0.005504031472729556 0.0004176823528491963 -0.0005262683833736616
0.005525668100916009 0.0004368799694134554 -0.0005140536560227734
0.005554288115379123 0.0004532016955255919 -0.0005031649236601004
0.0055913082241094 0.0004671525579925234 -0.0004935492342490858
0.005638240467843947 0.0004790852879640185 -0.000484899670614514
0.005696700189699449 0.0004891764754387585 -0.000476972876069846
0.005768422237748224 0.0004974087976288746 -0.0004697180616048224
0.00585525597219719 0.0005035668326226587 -0.0004631320173547154
0.005959130478891788 0.0005072418421990815 -0.0004572794361864961
0.006082091252256005 0.000507843315151998 -0.0004522508709692693
0.006226378788205541 0.0005046026636587965 -0.0004478669106013599
0.006394469887958882 0.0004965559848522056 -0.0004435017294374088
0.006589173440393487 0.0004825018847816316 -0.0004382939782030619
0.006813756308377434 0.0004609438780508546 -0.0004313155995120325
0.007071979506619097 0.0004300309197679371 -0.0004215424828296895
0.007368092239729186 0.0003874946404811274 -0.0004080717956393279
0.007706858154009831 0.0003305917172760413 -0.0003902890436848403
0.008093607152229171 0.0002560405945150137 -0.0003675378592111418
0.008534326669537486 0.0001599307393088092 -0.0003387095625100992
0.009035783063995126 3.761520388587716e-05 -0.0003020733650755246
0.009605644394038125 -0.0001164074177506573 -0.0002552437820522277
0.01025260312495489 -0.0003086183529530264 -0.0001953576385912016
0.01098644295592618 -0.0005465961731858621 -0.0001191947369778069
0.01181809271388436 -0.0008391445742608431 -2.295262714611649e-05
0.01275975828655887 -0.001196449032090474 9.797709185107669e-05
0.01382506568438636 -0.001630252932745493 0.0002491989237784944
0.01502917360807915 -0.002154031133913329 0.0004374232235350865
0.016388828275124 -0.002783145538176922 0.000670375781081359
0.017922282364226 -0.003534949882181063 0.0009568961400548071
0.01964914720012051 -0.00442884938912737 0.001307422494472466
0.02159024886429978 -0.005486316972892107 0.001734535957382928
0.02376728286666347 -0.00673081190081201 0.002253115270536543
0.02620209282239323 -0.008187538956313448 0.002880448468592348
0.02891561619238163 -0.009883038186862597 0.00363674223088604
0.03192645522981331 -0.01184459069688219 0.004545641753250053
0.03524887269942741 -0.01409941544474709 0.005634445601779045
0.03889003636712787 -0.01667364858232415 0.006934158620870446
0.04284649144503259 -0.01959115086391902 0.008479396843718762
0.04709988574802337 -0.02287223047885653 0.01030793837572306
0.0516120812993261 -0.02653242693736646 0.01245964863266115
0.05632004984579644 -0.03058150136959905 0.01497466092496683
0.06113130099097226 -0.03502277671432677 0.01789076020130453
0.06592096154287208 -0.0398528312282501 0.02123990460629898
0.0705319412698129 -0.04506120776745405 0.02504413561138825
0.07477980472455291 -0.05062922894906244 0.02931132723627673
0.07846396201516363 -0.05652594834289 0.03403162465564415
0.08138699485074487 -0.06269759036999434 0.03917556834212437
0.08338572357186237 -0.06904372483123512 0.04469511696629148
0.08438543350772297 -0.0753668909243833 0.05052920230317508
0.08451619444166909 -0.0812664033584555 0.05661819668086521
0.08442797432074554 -0.08590383813933763 0.06294561678400054
0.08633248652692793 -0.087442186433512 0.06969992462403556
0.09822280582684229 -0.08160892848067686 0.07816100574322302
0.1563429082008743 -0.05847062667132039 0.09840695591443412
0.5175859329340095 -0.006948121456167577 0.2712870636437996
0.8552901993215757 -0.1030958353817399 -0.2471313700984911
0.3235923512000183 -0.1125788460860688 -0.01713965632917947
0.1749470701138348 -0.1035018387064054 0.01007761366924556
0.1081970726586637 -0.09052637337052777 0.01594163863824532
0.07177167135633609 -0.07809674679340005 0.01703949791699521
0.04957018934464731 -0.06717235402985407 0.01658022397147442
0.03506267553579515 -0.05778028753369383 0.01551234703987293
0.02516126126284392 -0.04974804057230884 0.01419521568236043
0.0182298139941422 -0.04288374795869807 0.01279305093798665
0.01331752795559013 -0.03701417792928419 0.01139221507374882
0.00982883995782826 -0.03198963200276469 0.01004194695179401
0.007368094199287722 -0.02768218356252607 0.008770818165700434
0.00566049033338686 -0.02398303926868648 0.007594584360172498
0.004508842724814485 -0.02080004125750659 0.006520582340666707
0.003768311618740716 -0.01805540415759862 0.005550513390994639
0.003330747088726334 -0.0156836603317012 0.004682323224742666
0.003114494283920217 -0.01362981755071703 0.003911532807068562
0.003057474909080038 -0.01184771661199299 0.003232161096164087
0.003112330908230644 -0.01029859869626986 0.002637387481051653
0.003242922318285038 -0.008949873657686121 0.002120039991741022
0.003421764392615386 -0.007774068222909445 0.001672920677254529
0.003628104788424502 -0.006747953182654806 0.001289019069309126
0.003846439878205871 -0.005851812960358835 0.0009615902845682565
0.004065365731961417 -0.005068843236253386 0.0006843367720420102
0.004276720387725123 -0.004384652554758574 0.0004515053139900292
0.004474920071259863 -0.003786854815538196 0.0002577851756874638
0.004656360176254337 -0.003264740878930881 9.81998059804454e-05
0.004818921748969066 -0.002809014658192705 -3.182409530733539e-05
0.004961664322277106 -0.002411565432108478 -0.0001362512810912265
0.005084592889329102 -0.002065281140217855 -0.0002186357160728179
0.005188394856347867 -0.001763906822896073 -0.0002824044342468199
0.005274194571136658 -0.001501932320020325 -0.0003307710228290981
0.005343406809345632 -0.001274489320866101 -0.0003666011568445157
0.005397661949631757 -0.001077266202311113 -0.0003923268821302974
0.005438735081156896 -0.000906436012535134 -0.0004099319597151521
0.005468499280779205 -0.0007586003126515499 -0.0004211728557780702
0.00548884995862824 -0.0006307506526083675 -0.0004276476830410981
0.005501618314812549 -0.0005202367614942264 -0.0004306294370326707
0.005508563687471686 -0.0004247310563418551 -0.000431003319405332
0.00551139025465993 -0.0003421950023744251 -0.0004292078018707304
0.005511766761776768 -0.0002708475956501497 -0.0004253953778863834
0.005511352414295878 -0.0002091393047490895 -0.0004197379855619194
0.005511760096389956 -0.0001557362172127636 -0.0004125209188814822
0.005514489389132419 -0.0001095033110355706 -0.0004043066214889503
0.005520935835995104 -6.948084999533519e-05 -0.0003959780368496727
0.005532418213489663 -3.486538863924601e-05 -0.0003883132097699769
0.005550178854597445 -4.992445878172054e-06 -0.0003816940672282789
0.005575443863852956 2.067714378312044e-05 -0.0003762676337084815
0.005609500751227358 4.256158314540814e-05 -0.0003719553826999091
0.005653719301243031 6.095516000113577e-05 -0.0003684235794634458
0.005709556907057994 7.60169987852602e-05 -0.0003654342150975947
0.005778584327475311 8.776250864804484e-05 -0.0003629819511438588
0.005862486511591806 9.606161825808484e-05 -0.0003611260439098776
0.005963030718224562 0.0001006371094411228 -0.0003600120646056906
0.006082103907795816 0.0001010637657247707 -0.0003598416756773357
0.006221781877104722 9.676642033659126e-05 -0.0003605542221040776
0.006384353580229186 8.700674594917354e-05 -0.0003616365208531629
0.006572401418071788 7.085733028925634e-05 -0.0003623578067922823
0.006788920461996098 4.716692250202396e-05 -0.0003619544184671378
0.007037351614986229 1.452375643894859e-05 -0.0003596107927753889
0.007321574758031672 -2.878808988100066e-05 -0.0003546976697546759
0.007645935621139644 -8.483110149206462e-05 -0.0003469344903358093
0.008015286230329837 -0.0001560588601066981 -0.000336050243347057
0.008435060563896719 -0.0002453727508647002 -0.0003213976392809128
0.008911387375440626 -0.0003561862531436359 -0.0003017983959137688
0.009451205905177435 -0.0004924917464918697 -0.0002755202259319776
0.01006238732397554 -0.000658937447649099 -0.0002404777636201127
0.01075380318498817 -0.0008609023303198373 -0.0001943587605042137
0.01153537061082843 -0.001104569915896354 -0.00013440478906879
0.01241817296610765 -0.001397005381524115 -5.721945542145898e-05
0.01341460474397663 -0.001746231256724873 4.138831850316987e-05
0.01453850064597721 -0.0021612841604279 0.0001664792635993221
0.01580522664850109 -0.002652250258542358 0.0003238608622428548
0.01723165223829874 -0.003230252568495831 0.0005201758914338019
0.01883606072238967 -0.003907375919046024 0.0007633714569902974
0.02063808449658342 -0.004696516068403517 0.001063213462567719
0.02265848278418821 -0.005611128474656301 0.001431443416725714
0.02491857911607291 -0.006664834765645228 0.001881923253818484
0.02743937963797988 -0.007870869098759121 0.002431195023845703
0.03024032620865325 -0.009241342930637523 0.003099076747604771
0.03333747870147442 -0.01078632896647031 0.003908994458311896
0.0367409153298099 -0.0125127805177714 0.004888195551171151
0.0404512770988203 -0.01442334759137623 0.006067843916389365
0.04445543031146089 -0.01651518725650827 0.00748277194927737
0.04872133999528112 -0.01877896155250091 0.009170586800901029
0.05319253904019042 -0.02119819859450349 0.01116995932424278
0.05778301041634757 -0.02374921757887953 0.01351797253343107
0.06237382203843741 -0.02640168556759473 0.01624639674289257
0.06681340554992535 -0.02911955226934785 0.01937709882206467
0.07092388312184629 -0.03186156691724182 0.02291706192209355
0.07451629518023886 -0.03457961147706799 0.02685400071965621
0.07741851431272986 -0.03721172246885431 0.03115385413487523
0.07952290953660407 -0.03966456918843789 0.0357618403742246
0.080872256878584 -0.04177669247053434 0.04060951215676393
0.08183902077702977 -0.04324746813262096 0.04563403157980259
0.08357245318004571 -0.04350631835434154 0.05083386773535115
0.08931545134633978 -0.04149313774345506 0.05647587523665071
0.1090243665282036 -0.03543341721643107 0.06414058269233072
0.1804510238906233 -0.02355161366393525 0.08484929048754837
0.5422001376798532 -0.01028955169711284 0.2580271349053
0.821396566334899 -0.06856089646316582 -0.2451321044548935
0.3210021615029783 -0.08642698877508659 -0.02295325217013954
0.1827691010530005 -0.08634522408963777 0.004692518275752474
0.1187045140004843 -0.07955200944276412 0.01182173824388543
0.08216741126935853 -0.07078032047613987 0.01404166516498234
0.0589917478505536 -0.06200014156456871 0.01443335542678918
0.04332915323709493 -0.05393248157809161 0.01398434954399637
0.03231725277438827 -0.04678042386566856 0.0131126928391436
0.02438778809321471 -0.04054431335084055 0.01203094217919748
0.01860351016527078 -0.03515015019235502 0.01086097790886897
0.0143634690789058 -0.0305014026868628 0.009677474742702079
0.01126020017544974 -0.02650007226203865 0.008527180273835182
0.009005408571454985 -0.02305515449791561 0.007438869797286166
0.007388660926338123 -0.02008568570540587 0.006429217186112808
0.006252933282589242 -0.01752135643991895 0.005506613652728829
0.005479269812902905 -0.01530200597327178 0.004673784048150456
0.004976653964139472 -0.01337664334813101 0.003929649280984533
0.004675027209367989 -0.01170229596458966 0.003270635167428001
0.004520307321816885 -0.01024286072730035 0.002691616129924872
0.004470735617243337 -0.008968036848448822 0.002186606515310867
0.004494159006014608 -0.007852369669572938 0.001749233928284923
0.004565959330547182 -0.006874434721507614 0.001373061834637623
0.004667437076966784 -0.006016138922172911 0.001051748884627264
0.004784549144606723 -0.005262137345470581 0.0007792806172867542
0.004906952604965708 -0.004599349916297872 0.0005501027498547833
0.005027253890884682 -0.004016567787656762 0.0003590530574734594
0.005140339816349283 -0.003504129950287008 0.0002012778581560726
0.005242832880043254 -0.00305366513701007 7.230275085792771e-05
0.005332739566805473 -0.002657874810395127 -3.176826226202508e-05
0.00540917359184679 -0.002310361191381868 -0.0001144315430663403
0.005472058874646928 -0.002005492345925651 -0.0001790523469176718
0.005521863706486447 -0.001738292317736945 -0.0002287840838255092
0.00555943791472021 -0.001504346974706988 -0.00026644024936769
0.00558592134946624 -0.001299730815603119 -0.0002944059191155975
0.005602658218174347 -0.00112094649124106 -0.0003146162527112618
0.005611135511191662 -0.0009648773661654173 -0.0003287676932157728
0.005612897930190572 -0.0008287521212863607 -0.0003383818995861872
0.005609458999352775 -0.0007101132786837574 -0.0003446536385352913
0.005602291906604035 -0.0006067866619658879 -0.0003484042824966593
0.005592844580350003 -0.0005168561313272863 -0.0003500272774884195
0.005582555345207201 -0.0004386375004652467 -0.0003496402737221802
0.00557287173604148 -0.0003706580949615742 -0.0003473851834766928
0.005565210862538017 -0.0003116415643549533 -0.0003435315761976909
0.005560895714627413 -0.0002604914860005738 -0.0003386400554364686
0.005561164593170004 -0.0002162716303427328 -0.0003335893132493524
0.005567193772027823 -0.0001781922068329755 -0.0003291463802411508
0.005580093743882028 -0.000145600728483181 -0.0003256936185224565
0.005600966432140885 -0.0001179751195850307 -0.0003233915289173046
0.005630978518743536 -9.491838027951589e-05 -0.0003221615378142045
0.005671373890221587 -7.615776970921207e-05 -0.0003216525286047535
0.005723475912699465 -6.154906024634585e-05 -0.0003216244987154755
0.005788719192930833 -5.108126667825955e-05 -0.0003221013843944876
0.005868651290430408 -4.487680486149518e-05 -0.0003231804128628945
0.005964897877566151 -4.319521550224151e-05 -0.0003250493191244721
0.0060791998608809 -4.644084879234995e-05 -0.0003279710059973799
0.006213478320554089 -5.517077954410802e-05 -0.0003319459474356537
0.006369849390941124 -7.010771961782197e-05 -0.0003365135214473391
0.006550696627529705 -9.216286748722756e-05 -0.0003410095620613119
0.006758786071565746 -0.0001224609402346974 -0.0003447531797919542
0.006997294406813871 -0.0001623682380240681 -0.0003470275281647256
0.007269798323370436 -0.0002135285225879489 -0.0003473341260370378
0.007580300269429899 -0.0002779015390559726 -0.0003455478390774075
0.007933263028764403 -0.0003578044221680095 -0.0003415710817566863
0.00833367809507453 -0.0004559607374822137 -0.0003349747396274533
0.00878717504623352 -0.0005755526763078424 -0.0003248541825436475
0.009300132645332306 -0.0007202741896404371 -0.0003098034455252428
0.009879796087705279 -0.0008943910515936174 -0.0002881268164929754
0.01053434742594279 -0.001102803101275651 -0.0002579552327328675
0.01127295397362307 -0.001351101721576873 -0.0002170251822742839
0.01210589310871638 -0.0016456232459603 -0.0001625102436618931
0.01304471075139768 -0.001993491436056849 -9.088263522177128e-05
0.01410237359810068 -0.002402637168513213 2.144718545970323e-06
0.01529339628409416 -0.002881792729169612 0.0001214867759751206
0.01663386984891651 -0.003440440400770166 0.000272784544990889
0.01814144754645391 -0.004088694008865128 0.0004628694409498926
0.0198353742167064 -0.004837092333401827 0.000700265380581231
0.02173638481665362 -0.005696285070462588 0.0009953714719188791
0.02386629625154585 -0.00667657313884215 0.00136065840789691
0.02624730361685381 -0.007787287728637462 0.001811287070293493
0.02890091994762907 -0.009035969679485837 0.002365784103709968
0.03184633868293259 -0.01042734922982178 0.003046492391718327
0.03509797820333987 -0.01196214056733521 0.003879942356291639
0.03866208418467375 -0.01363570237928947 0.004897123427375125
0.04253230238412831 -0.01543665681888137 0.006133418432894891
0.0466842564356967 -0.01734566752165967 0.007627865839811098
0.05106947987556133 -0.0193345868316008 0.009421523427950952
0.05560955440209843 -0.02136624600336708 0.01155473050834838
0.06019196676902041 -0.02339509515471972 0.01406305471577838
0.06466997290214778 -0.02536865817079452 0.01697206279414078
0.06886956744897077 -0.02722933782507056 0.02029138632802274
0.07260744852550624 -0.02891529600199249 0.02400916999578723
0.07572514521216653 -0.03035812825447678 0.02808844223241784
0.07814811762353775 -0.03147388226187989 0.03246752274894113
0.07999045989348443 -0.03214309486374055 0.03706754684129179
0.08176213152309955 -0.03217612312445707 0.04181443991280665
0.08484797245661092 -0.03126719281758708 0.04670206248290038
0.09281011328151054 -0.02897348977000408 0.05201681901647415
0.1156789169773442 -0.02487834918105641 0.05940738753701503
0.1893417339375214 -0.01946067847308555 0.07984706836596478
0.5416773668003979 -0.01730027074020205 0.2490606749840253
0.7838039726472763 -0.05063971836905308 -0.2416070831825486
0.3118352237248386 -0.07194971691919903 -0.02831162733161966
0.1845488134123046 -0.07648605894464289 -0.0008980306050664289
0.1250741799776313 -0.07367105511359097 0.007202590356589638
0.09002830920737806 -0.06763287715025273 0.0105186930978244
0.06690469989597071 -0.06052659668362191 0.01185278671510201
0.05068736574389351 -0.05342263464748634 0.01214065176777318
0.03890837180043955 -0.04680378563505803 0.01182048183657635
0.03017897580211013 -0.04085151282415332 0.01114198960352
0.0236398062984012 -0.03559982339866649 0.01026277454885164
0.01872007624569441 -0.03101445480055731 0.009286858520056389
0.01502005913927154 -0.02703282160704545 0.008283638685371554
0.01224881094070818 -0.02358392569094682 0.007298847552939941
0.01018874466376534 -0.02059803349784758 0.00636163434177075
0.008674115298184338 -0.01801107811990763 0.005489459976291307
0.007577145370590978 -0.01576631686980864 0.004691580381171238
0.0067986001550299 -0.01381459146816617 0.003971578725061145
0.006261104239969767 -0.01211388622552611 0.003329181202222193
0.005904241325017546 -0.01062858349126161 0.002761577882017657
0.005680870379591223 -0.009328623898446752 0.00226439157659367
0.005554321398368796 -0.008188674197400865 0.001832353313614699
0.005496216838962813 -0.007187377595783268 0.001459774985903686
0.005484745387826002 -0.006306685982012217 0.001140820646655907
0.00550329732806276 -0.005531289687642369 0.0008698106311860146
0.005539413665109999 -0.004848139426695702 0.0006414053682270791
0.005583952041146595 -0.004246055118490065 0.0004505812954610845
0.005630351679352967 -0.003715399789629257 0.0002925835991561901
0.005674035653468276 -0.003247817312082312 0.0001630067709540078
0.005712009915067388 -0.002836015273617489 5.798715665703953e-05
0.005742543866961738 -0.002473596469828179 -2.595535213022928e-05
0.005764844156735536 -0.002154923114204755 -9.216341519185941e-05
0.005778767701646782 -0.001875003191249716 -0.0001437623518020241
0.005784638049552016 -0.001629395799508516 -0.0001835402813759057
0.005783135695555931 -0.00141414350936965 -0.0002138604580070241
0.005775199013600401 -0.001225715028253954 -0.0002366342861968009
0.005761950850415707 -0.001060959339181641 -0.0002535220893794696
0.005744607129808623 -0.0009170695541556472 -0.0002659920095738118
0.005724384855710312 -0.0007915489795125987 -0.000275180499207198
0.005702488044910517 -0.0006821816737128553 -0.0002818644337851888
0.005680120802637093 -0.0005870105014806388 -0.0002864129045541287
0.00565850022979809 -0.0005043131035453469 -0.0002889269131786171
0.005638869774773663 -0.0004325814664123442 -0.0002895317824445343
0.005622458657151554 -0.0003705056648449218 -0.0002884901630454966
0.005610420433649822 -0.0003169557816625424 -0.0002863648484501319
0.005603840553972298 -0.0002709636002906268 -0.0002840289808797137
0.005603752682376052 -0.0002317110140320331 -0.0002822337680539244
0.00561113005932825 -0.0001985243103561631 -0.0002813590923940236
0.005626942643289268 -0.0001708697814847758 -0.0002815833686755474
0.005652230346722026 -0.0001483490847390837 -0.0002828389053257424
0.00568810975299887 -0.0001306952180775475 -0.0002847648928578472
0.005735773034504479 -0.0001177734902611994 -0.0002871156125079557
0.005796522995349667 -0.0001095832182585643 -0.0002899347670426235
0.005871773798878186 -0.0001062575935742938 -0.0002933495668418315
0.00596301068914762 -0.000108067521945289 -0.0002975811929521353
0.006071824829615277 -0.0001154338115830757 -0.0003029397669182899
0.006199975908556019 -0.000128939056080862 -0.0003094721265694235
0.00634940123845646 -0.0001493422182326645 -0.00031676007320643
0.00652228388945846 -0.0001775988023686886 -0.0003241979955307653
0.006721165406872017 -0.0002148833003489256 -0.0003311757691974947
0.00694896848545866 -0.0002626125123810077 -0.0003370566584579736
0.007208980934274474 -0.0003224780315508273 -0.0003414437163175427
0.007504877802964363 -0.0003964829091087714 -0.0003443303310021196