# OOMMF: rectangular mesh v1.0
# Segment count: 1
# Begin: Segment
# Begin: Header
# Title: 
# Desc: time = 1.8680736922154184e-10
# Desc: stepsize = 3.8167182760255746e-13
# Desc: step = 400
# meshunit: m
# valueunit: (none)
# valuemultiplier: 218601.3601151528
# xmin: 0
# ymin: 0
# zmin: 0
# xmax: 4e-07
# ymax: 1e-07
# zmax: 4e-09
# ValueRangeMaxMag: 0.9999999999999999
# ValueRangeMinMag: 0.003874342341033787
# meshtype: rectangular
# xbase: 2e-09
# ybase: 2e-09
# zbase: 1e-09
# xstepsize: 4e-09
# ystepsize: 4e-09
# zstepsize: 2e-09
# xnodes: 100
# ynodes: 25
# znodes: 2
# End: Header
# Begin: Data Text
0.83160489317231 -0.537263395159558 -0.1406438991791449
0.2492308737562647 -0.3671623204320285 0.06800218340091224
0.1169657229439094 -0.2951170284666286 0.08258960784085363
0.06277434304836209 -0.2493603179708549 0.07924439156939307
0.03476659651353124 -0.2138751612411806 0.07242087167739956
0.01861325231397616 -0.1842089737510924 0.06487247027679248
0.00878885876078297 -0.1587336957663734 0.05743666398778547
0.00269663951703943 -0.1366526531428491 0.05042750896947695
-0.001052132532718175 -0.1174561159372837 0.04396704417701388
-0.003269427235514267 -0.1007549855092932 0.03809270384190937
-0.004461155604204778 -0.08622583029140946 0.03280094379658705
-0.004957493177514378 -0.07359080226585028 0.0280674683607942
-0.004981388131761001 -0.0626087786278217 0.02385739176903346
-0.004687212126366404 -0.05307005720309355 0.02013123281555702
-0.004183888328099301 -0.04479219436521283 0.01684830991614376
-0.003549300195299639 -0.03761645124099649 0.01396827645350502
-0.002839572647822483 -0.0314046300390609 0.01145228506260654
-0.002095303147751665 -0.02603623518786491 0.009263816769012794
-0.001345780173442072 -0.02140605871111262 0.007368704581828326
-0.0006119224491993105 -0.01742209645864424 0.005735371140736609
9.154404690203043e-05 -0.01400366309395901 0.004334929066544979
0.0007545570170018044 -0.01107983225068176 0.003140846277154281
0.001370648295697018 -0.008588152237177632 0.002128934740192951
0.001936086577464657 -0.006473499004933561 0.001277481446257068
0.002449257156290898 -0.004687186835237952 0.0005666983603042129
0.002910194051335495 -0.003186211140216875 -2.134731245121085e-05
0.003320111061713363 -0.001932522022683686 -0.00050274222545782
0.003681100892135126 -0.0008924709382984208 -0.0008921420438621891
0.003995934305075375 -3.638857682856412e-05 -0.001202591166141199
0.004267809554422421 0.0006618661720172993 -0.001445590293959271
0.004500172748933667 0.001225283276107157 -0.001631469804098506
0.004696597601653922 0.001674048833966327 -0.001769304815983552
0.004860676680521345 0.00202588577735203 -0.001866885623145116
0.004995983682057298 0.002296273044455114 -0.001931130225340389
0.005106015546009908 0.00249872649651032 -0.001967945932069374
0.005194118540631227 0.002645043560473166 -0.001982435837152531
0.005263517428507401 0.002745459075865645 -0.001979163855350207
0.005317283114596461 0.002808831332004791 -0.001961886325208384
0.005358306231274372 0.002842788260576675 -0.001933976441200676
0.005389326784104312 0.002853841525540209 -0.00189832867887396
0.005412895807617456 0.002847516755822136 -0.001857304699575808
0.005431402975193583 0.002828453269448929 -0.001813011906756686
0.005447085227868831 0.002800481609159221 -0.001767070677901028
0.005462016454732357 0.002766741098901293 -0.001720807502042517
0.005478153863224139 0.002729740822635166 -0.001675264222942511
0.005497337520258515 0.002691433619289901 -0.001631148312527876
0.005521323745340713 0.002653310671302861 -0.001588994472517484
0.005551819913906408 0.002616419587806261 -0.001549094347062896
0.00559050245386669 0.002581445918361674 -0.001511585232819114
0.005639067820306292 0.002548731242153102 -0.00147645793794118
0.005699255851813857 0.002518275871170402 -0.001443564956540867
0.005772896286160528 0.00248978034805054 -0.001412654979124286
0.005861949193872764 0.002462587941047356 -0.001383325322512228
0.005968541390942217 0.00243568834919881 -0.001355078529458542
0.006095027523258661 0.002407671362671668 -0.001327223627145192
0.006244020758307448 0.002376639686475327 -0.001298873710096141
0.006418463724205081 0.002340173966435328 -0.001268938925859526
0.006621682153493705 0.002295199441541746 -0.001235939109357726
0.006857437006743796 0.002237883690179645 -0.001198101842800017
0.007130021912969391 0.002163517114619983 -0.001153180468320558
0.007444305354571762 0.002066319576847866 -0.001098349635361623
0.007805831173279125 0.001939285009035856 -0.001030327498261742
0.008220909572700209 0.001773961785499911 -0.0009449874985840746
0.008696683083846133 0.001560194944018877 -0.0008375018731547618
0.009241276884491712 0.001285873889136168 -0.0007022054438279324
0.009863874381725589 0.000936591804155305 -0.0005322017044355049
0.01057483739836523 0.000495262371068166 -0.00031955290568105
0.01138588232193401 -5.825612332374001e-05 -5.471644417470366e-05
0.01231018330118076 -0.0007476794673818828 0.0002736213167116173
0.01336252296429701 -0.001600861325243113 0.0006786797152312093
0.01455941116184434 -0.002650377366852898 0.001176383807786622
0.01591917028358045 -0.00393421770711224 0.001785512073633157
0.0174620467520142 -0.005496450503992871 0.002528050411897381
0.01921014372884382 -0.007387994316730508 0.003429923521035353
0.02118719557970803 -0.009667385594291379 0.004521372117058599
0.02341832279091847 -0.01240133228412072 0.005837468429650897
0.02592950675573306 -0.01566522395973733 0.00741877656550815
0.0287466797173462 -0.01954351486532809 0.009311496857047966
0.03189447236923934 -0.02412975029335963 0.01156814191836479
0.03539441069023887 -0.02952618045889926 0.01424815576297941
0.03926254475086728 -0.0358428625352709 0.01741761062196114
0.04350643143803831 -0.04319605806474897 0.02114908472805883
0.0481212398277007 -0.05170598316970416 0.02552094495633343
0.05308512389277165 -0.06149375930835393 0.03061554353719636
0.05835417988743571 -0.07267745405730713 0.03651696607211192
0.06385732399820701 -0.08536740321984365 0.04330769651240256
0.06949187833407415 -0.09966098201724333 0.05106359396840084
0.07512084693077889 -0.1156369979012037 0.05984852450635621
0.08057276872324304 -0.1333498937325353 0.06970859759632803
0.08564512106370345 -0.1528233924728002 0.08066625710246683
0.09011168887884453 -0.174042218694175 0.09271600108784891
0.09373310148666011 -0.1969389904375857 0.1058220205052724
0.09626929366271726 -0.2213696110784324 0.1199175574853048
0.09749388139417381 -0.2470620991531443 0.1349071790068212
0.09721821318164545 -0.2735025524409496 0.1506725499908797
0.09536705864386301 -0.2996585021263662 0.1670862035197499
0.0923004844193826 -0.323213291669227 0.1840744706786976
0.09044732983956444 -0.3379615971826659 0.2020420293047538
0.1057524236984769 -0.3215145393770797 0.2263383886970423
0.332801951913741 -0.1330721166954807 0.3580081407850184
0.8780237330827712 -0.1883222308290284 -0.2410237341723725
0.3094312542789354 -0.1717218157696137 -0.006979719079216309
0.1560698266178656 -0.1429131788216464 0.01819868450816295
0.09138350455204522 -0.1196383029929349 0.02231178086712387
0.05759501623795103 -0.1013250433452428 0.02215346405052985
0.0376372608939043 -0.08643334803643402 0.02075766451452856
0.02495965201748684 -0.0740172037877959 0.01895743205466833
0.01656470256827579 -0.0635179427512152 0.01704947186481736
0.01088974817331465 -0.05457248179019472 0.01516195546900888
0.007034601531630249 -0.04691872509326622 0.01335778861915914
0.00443968982349667 -0.04035275606943736 0.01166973463999448
0.002736687859146692 -0.03470897938754837 0.01011418169076383
0.001672722926357485 -0.02985001750999362 0.008697343837799236
0.001068801982342015 -0.02566077400584058 0.007419152734900633
0.0007953445505101757 -0.02204438391660993 0.00627560232682923
0.0007570164807433642 -0.0189191266040824 0.005259858397721861
0.0008829382689755402 -0.01621592871254643 0.004363436202748148
0.001120025629599204 -0.0138762844509747 0.003577210955580592
0.001428405869118637 -0.01185052512815363 0.002891628109757565
0.001778203023872982 -0.01009636858906465 0.002297205489966948
0.002147112163457631 -0.008577694240706389 0.001784907371701339
0.002518627306037751 -0.007263533985678279 0.001346029508006728
0.002880786320879208 -0.00612723835580322 0.0009724040268734431
0.003225149860512187 -0.005145785310342025 0.0006567306624451549
0.003546034284039151 -0.004299214465018681 0.0003921585106400183
0.003839955804556538 -0.003570165391154503 0.0001723308155017847
0.004105075569906448 -0.002943490792768525 -8.508732171192329e-06
0.004340800819429662 -0.002405943096477 -0.0001558098584765011
0.004547530233598642 -0.00194591721461206 -0.0002743993221426198
0.004726372214910641 -0.001553233351258087 -0.0003684943642064332
0.004878931981425957 -0.001218953841498483 -0.0004419988070246203
0.005007165399127739 -0.0009352258607811689 -0.0004982921822683716
0.005113229238058936 -0.0006951436414306179 -0.0005401299977372382
0.005199424361252048 -0.0004926366038438285 -0.0005700080268756435
0.00526813337196133 -0.000322368600137958 -0.0005899584366285893
0.005321712274277433 -0.0001796498684989361 -0.000601710691037658
0.005362502218901985 -6.036641489836228e-05 -0.0006069129287192621
0.005392788380366698 3.908183587732944e-05 -0.0006068038923304529
0.005414755205290911 0.0001218368168768695 -0.0006026217455080965
0.005430510292320159 0.0001906255655114181 -0.0005954537462409867
0.005442037162062669 0.0002478013529377358 -0.0005861416941809024
0.005451212468487416 0.0002953793005167287 -0.0005755485762153881
0.005459816549838049 0.0003350665899699843 -0.0005642668273617104
0.005469517171194966 0.0003682941260650931 -0.0005528041660824491
0.005481908650777411 0.0003962441535168973 -0.0005415580498114929
0.005498514764115624 0.0004198756395340419 -0.0005307337357460004
0.0055208102490375 0.0004399496215543403 -0.000520507944672846
0.005550251153459412 0.000457048213696264 -0.000510921228877086
0.00558828886516786 0.0004715919117368829 -0.0005019753479532821
0.005636404612027514 0.0004838497831966308 -0.0004936318999352974
0.005696132969524715 0.0004939454455265852 -0.0004858100604296885
0.005769094397273108 0.0005018585761668801 -0.0004784410018298861
0.005857025363320594 0.0005074172453343151 -0.00047140601488185
0.005961812507155535 0.0005102897925953816 -0.0004646156057692251
0.00608553488416088 0.0005099669720250146 -0.0004579189710851168
0.006230491958957476 0.0005057385006238217 -0.0004511080660082186
0.006399262694771529 0.0004966677721393864 -0.0004439483513645201
0.006594743156867566 0.000481553594817254 -0.0004359994605072319
0.006820195687682579 0.0004588896776889837 -0.0004267614836812098
0.007079326325046053 0.0004268173174422293 -0.0004155337079939976
0.007376314174614962 0.0003830647635897795 -0.0004013534743459935
0.007715902147766025 0.0003248845492381433 -0.0003832006098440681
0.008103463766827881 0.0002489773956534728 -0.0003596610911372292
0.00854505576382269 0.0001514055796195134 -0.0003291692985348628
0.009047547063771314 2.749794489979385e-05 -0.0002899697531081887
0.00961866151458303 -0.0001282606641700294 -0.0002398197625066754
0.01026708641675299 -0.0003223516040884738 -0.000176321621355038
0.01100261653238981 -0.0005623537135698203 -9.647746103376876e-05
0.01183621167852038 -0.0008570938263586508 3.303564903472387e-06
0.01278013342968439 -0.001216804803628728 0.0001271424015001616
0.01384804227974412 -0.001653285188999764 0.0002803132909075964
0.01505507203877772 -0.002180057420346001 0.0004691551788055455
0.01641793605455456 -0.002812516140199871 0.0007011490052591002
0.01795486204889159 -0.003568051668164419 0.0009853797322349662
0.01968545128135138 -0.004466124733864352 0.001332627761719587
0.02163054117982908 -0.005528255048621171 0.001755622267086664
0.02381177401511262 -0.006777916899794617 0.002269460163543253
0.02625086483164695 -0.008240305895150346 0.002891497661568432
0.02896861363438447 -0.009941933417374652 0.00364194820110707
0.0319833973329135 -0.01191001732717309 0.004544587395792546
0.03530914470901129 -0.01417166415740685 0.005626646256620932
0.03895267699927292 -0.01675284583932519 0.006919149447751496
0.04291013628156294 -0.01967722433370341 0.008456935774636895
0.0471626672831621 -0.02296489949464125 0.01027785126285724
0.05167158555314162 -0.0266312054993116 0.0124218957154713
0.05637328134804401 -0.03068571415143881 0.01492961202509101
0.0611747121167855 -0.03513159852535067 0.01783889974353232
0.06595061504598466 -0.03996534898836047 0.02118158603888068
0.0705436942572263 -0.04517650309773827 0.02497949806816521
0.07476954601325501 -0.05074647870047373 0.02924001908617497
0.07842802481978328 -0.05664451839164533 0.03395291067070934
0.08132257476985073 -0.06281710059299533 0.03908882906578413
0.08329117987025214 -0.0691640882177648 0.04459981337953316
0.08426041612005564 -0.0754883499612074 0.0504246077646426
0.08436124167541076 -0.08138962002605289 0.05650352353569498
0.08424306850158766 -0.08603017294440145 0.06281991570092881
0.08611373568082967 -0.08757445134351965 0.06956139382355842
0.097952999831592 -0.08175319629645994 0.07800557241666599
0.1559534625997757 -0.05863953721775279 0.09821865888402961
0.5166948941692716 -0.007158604457550775 0.2708969919803558
0.8539333839890274 -0.1032096371762557 -0.2471904663626495
0.3231175655642171 -0.112836637524757 -0.01762011208621846
0.1747378763904117 -0.1038180883721342 0.00961157313810892
0.1080940591070211 -0.09085143480848273 0.01553928079343804
0.07171329838880125 -0.07840500761060611 0.01670189524133896
0.04952954764908424 -0.0674527892222745 0.01629881683175551
0.03502757717239913 -0.05802967283098372 0.01527755871510098
0.02512635275210122 -0.049967028413389 0.01399887678173525
0.01819303030949554 -0.04307474670699823 0.01262856228720717
0.01327840404369601 -0.03718023382001266 0.01125405986586397
0.009787654796046551 -0.03213385933600994 0.009925664039213756
0.007325380645001647 -0.02780749675707739 0.008672994195261874
0.005616810106601554 -0.02409204895405472 0.007512541546054928
0.004464743804236857 -0.02089503078060999 0.006452346495202417
0.003724303314564539 -0.01813834119131372 0.005494834826643105
0.003287279106668822 -0.01575622691101313 0.004638274955398541
0.003071981697060903 -0.01369344793984051 0.003878259893739615
0.003016278374107709 -0.01190363161204027 0.003208972489121756
0.003072740451704938 -0.01034783802647335 0.002623560538660925
0.003205200774737982 -0.008993330733369715 0.002114759429676347
0.003386127827690906 -0.007812517533926254 0.001675398481732231
0.003594669374153558 -0.006782067972370367 0.00129837016271886
0.003815243695435553 -0.005882179466919286 0.0009768700522274827
0.004036393585993866 -0.005095970415091858 0.0007047870131427977
0.004249908675747231 -0.004408977383812456 0.0004763318267940554
0.004450179554235776 -0.00380874824215803 0.0002860679034031628
0.004633571882709092 -0.00328450983446331 0.000129037997277677
0.004797964480397527 -0.002826901696401657 5.164377545306306e-07
0.004942446638911383 -0.002427757137690334 -0.0001036734175179909
0.005067001651437507 -0.00207992245373677 -0.0001871683124930308
0.005172262095043536 -0.001777112075021554 -0.0002533426296572856
0.005259339039862322 -0.001513791278545704 -0.0003050937022516474
0.005329653304148812 -0.001285073302455386 -0.0003447358563407959
0.005384861273418815 -0.001086637734421461 -0.0003743609821493982
0.005426780046053264 -0.0009146612767102516 -0.000395649425714586
0.005457266625665722 -0.0007657567835653839 -0.0004100161512855759
0.005478217232209487 -0.0006369253850509184 -0.0004188322036411352
0.005491519927583147 -0.0005255168352212595 -0.0004231095456607855
0.005499002216637535 -0.0004291914825501615 -0.000423891023138416
0.005502448073035399 -0.0003458945135124738 -0.0004221062700782271
0.005503548138518264 -0.0002738304230184034 -0.0004184683097164872
0.005503912080249481 -0.0002114395546861666 -0.0004137275684489089
0.005505077765225481 -0.000157380725292612 -0.0004083878868765347
0.005508493833184508 -0.0001105111297621043 -0.000402878802160523
0.005515555814403196 -6.986884189515503e-05 -0.0003975333444303502
0.005527608897981186 -3.465842480002874e-05 -0.0003925068589844134
0.005545966097718586 -4.235360979559998e-06 -0.0003879342045923611
0.005571935670177891 2.190540537753529e-05 -0.0003838292705371844
0.005606832276098748 4.413942597981671e-05 -0.0003801782632465603
0.005652006403021098 6.271904216913703e-05 -0.000376943196360823
0.005708864973956307 7.777716131924039e-05 -0.0003740612916750362
0.005778898549545439 8.932740340359646e-05 -0.0003714979612641846
0.005863707118977207 9.725909123550053e-05 -0.00036919206975671
0.005965030208460073 0.0001013313996518385 -0.0003671272234863574
0.006084782932713117 0.0001011602203529347 -0.0003652475316190493
0.006225081218944905 9.62020384503558e-05 -0.0003634626497521057
0.006388294622134881 8.573646323551889e-05 -0.0003616706392197527
0.006577078646476608 6.883952389432138e-05 -0.0003595957379620361
0.006794420194523101 4.435671474931915e-05 -0.0003569249142949189
0.00704370611713198 1.08707291365551e-05 -0.0003531743174373602
0.00732874864273844 -3.33395977904862e-05 -0.0003476488102975252
0.007653868974945713 -9.033938583005277e-05 -0.0003396322861340846
0.008023954460257429 -0.0001625891994020192 -0.0003280841240211007
0.008444506863517767 -0.0002530001659085079 -0.0003118906065152901
0.00892175993126436 -0.000364994329733758 -0.0002898252782387389
0.00946271393929112 -0.0005025749463201685 -0.0002602984235178524
0.01007524000913674 -0.00067039879350114 -0.0002216831314776232
0.01076821288463992 -0.0008738539979806201 -0.0001718860283168732
0.01155156485157231 -0.0011191427326013 -0.0001083953056148989
0.01243642546120669 -0.001413356866889399 -2.834032826389045e-05
0.01343522268337896 -0.001764548222930199 7.210440888758121e-05
0.01456177405228862 -0.002181782130312648 0.0001975949507862021
0.0158314203255238 -0.002675165576404886 0.0003536896368402281
0.0172610020101483 -0.0032558359653452 0.0005472716826275437
0.01886879223308919 -0.003935890084736473 0.0007866018129975403
0.0206744523554162 -0.004728224902401022 0.001081595553602997
0.0226987111523011 -0.005646280312632576 0.001444227851873428
0.02496278454127929 -0.006703644098019741 0.001888420164140856
0.02748756618303056 -0.007913493367643088 0.002430717979744304
0.03029230494603495 -0.009287856710006148 0.003091073131070634
0.03339276530459099 -0.01083669476614066 0.003892851089403002
0.0367987126681451 -0.01256681739557488 0.004863357873200831
0.04051039918632921 -0.01448071085156802 0.006034040128076008
0.04451418525357408 -0.0165753658987693 0.007439845808090247
0.04877747252954762 -0.01884128756722422 0.00911857428152271
0.05324316944620109 -0.02126187828428657 0.01110936976263453
0.05782463464567669 -0.0238133961561536 0.01344946684132494
0.06240245316610549 -0.02646554160139451 0.01617053050220731
0.06682473975923617 -0.02918241559384201 0.01929424162472455
0.07091353574156745 -0.0319230496064607 0.02282709784764994
0.07448024417206159 -0.03463972194014422 0.02675641560691479
0.07735356268945755 -0.03727093663711816 0.03104823746454813
0.07942702290312795 -0.03972385319741711 0.03564784353768467
0.08074470012541747 -0.04183748676307974 0.04048658123344068
0.08167988822222656 -0.04331167375746948 0.0455015521121731
0.08338100206186758 -0.04357638010951865 0.05069103834816008
0.08908632473582266 -0.04157235421676495 0.05632089357958732
0.1087374761784804 -0.03552654637682844 0.06396892919698843
0.1800338477523107 -0.02366547668790222 0.08464314213324853
0.5412661932140609 -0.01043510384067136 0.2576078216469969
0.8198641302256506 -0.06863171230507334 -0.2451794379392482
0.3204414831389104 -0.08660133036993227 -0.02346042299392567
0.1825236228381974 -0.08657440170941622 0.004188568680898352
0.1185975045953775 -0.07980334302504714 0.01137868271470345
0.08212320342106576 -0.07103128783076468 0.01366501074752984
0.05897391853727228 -0.06223743281862839 0.01411654024664839
0.0433198457790053 -0.05414951625049538 0.0137184513079233
0.03230799842311651 -0.0469748951191614 0.01288952547361839
0.02437496154428985 -0.04071637717553035 0.01184358247457109
0.01858598655319195 -0.03530124608551434 0.01070347247383256
0.01434136273358355 -0.03063353760012111 0.009544902291767472
0.01123413377556126 -0.02661540989205892 0.008415690807321683
0.008976149142337689 -0.0231557989664901 0.007345405423513884
0.007357003207709705 -0.02017357976096773 0.006351492490138827
0.006219639384655557 -0.01759823647502249 0.005443129565130697
0.005445027840194529 -0.01536939023823186 0.004623410973601402
0.004942092482926231 -0.01343584419168981 0.003891353624177969
0.004640693826959794 -0.01175444006333631 0.003243560420619982
0.004486650527029794 -0.01028890946653549 0.00267489161966136
0.004438148103766616 -0.009008812867412933 0.002179277598288197
0.004462964859725152 -0.007888582027535699 0.001750377716586834
0.004536367187118816 -0.006906695478596088 0.001381672113375499
0.004639565203883605 -0.006044976155623897 0.001066774302465081
0.004758453846813986 -0.005288006969553624 0.0007998738095142021
0.004882635721139877 -0.004622643405871828 0.0005754043797227361
0.005004689040432639 -0.004037616226273771 0.0003880772598734385
0.005119470968320675 -0.003523204348150287 0.0002330401389629422
0.005223595036216687 -0.003070979011149683 0.0001056601938937821
0.005315084498381013 -0.002673595942681491 1.83063526546961e-06
0.005393021949474966 -0.002324622119828625 -8.201910206624257e-05
0.005457269508097266 -0.002018396179305722 -0.0001491847056782046
0.005508273681269956 -0.00174992065390335 -0.0002024855752531954
0.005546881797551886 -0.001514769122963817 -0.0002441524469730848
0.005574250522064816 -0.00130901234340138 -0.0002761823679022879
0.005591758555148651 -0.001129157498430827 -0.0003001780184829848
0.005600876705188607 -0.0009720949022870017 -0.0003174803938810657
0.00560315564804334 -0.0008350566986747847 -0.0003293902253098609
0.00560017395279756 -0.0007155839921994112 -0.0003368771677781875
0.005593479779267506 -0.0006114936101059918 -0.0003409458315334337
0.00558460104008021 -0.0005208571323202778 -0.0003425034999714356
0.005574995340537891 -0.0004419798900779515 -0.0003422525045603918
0.005566058159062578 -0.000373379878934106 -0.0003409250139603085
0.005559130345808239 -0.0003137737376955635 -0.0003390149017610571
0.005555480785682478 -0.0002620599505840535 -0.0003369338532145027
0.005556339071528356 -0.0002173035934887843 -0.0003349932079330795
0.005562898267856884 -0.0001787261228740743 -0.0003333305176969027
0.005576330927632826 -0.0001456927438327274 -0.0003320577451517631
0.005597813981217575 -0.000117703670588159 -0.0003311738900646241
0.005628538656992491 -9.438706407969601e-05 -0.0003306539946033345
0.005669736101766322 -7.549325841943115e-05 -0.0003304564238067747
0.005722695724441508 -6.089213963710406e-05 -0.0003305292737050906
0.005788788888392685 -5.057329724503292e-05 -0.0003308587628550997
0.005869491088657243 -4.464981696255273e-05 -0.0003314220714917363
0.005966408736777186 -4.336391000958728e-05 -0.0003322501636159783
0.006081310452795113 -4.709842054714363e-05 -0.0003333466823493488
0.006216150224629741 -5.639092869400966e-05 -0.0003346947960659641
0.006373115302785454 -7.194971772877131e-05 -0.0003362666484942116
0.006554654634608943 -9.467699254003851e-05 -0.0003378766101601793
0.006763521554957994 -0.0001256927938121575 -0.0003393060151272811
0.007002835385866835 -0.0001663636808466544 -0.0003401726351242086
0.007276105188071622 -0.0002183378610622735 -0.0003399099448539722
0.007587307668543844 -0.0002835800024869757 -0.0003379358245727317
0.007940937498048022 -0.0003644157855894001 -0.0003333801450811887
0.008342054297932146 -0.0004635776239950877 -0.0003253389263584555
0.00879639123892997 -0.0005842556602945808 -0.0003128254487298181
0.009310386465456656 -0.0007301555075041765 -0.0002945651476879463
0.009891286864630684 -0.0009055548077764768 -0.0002693031122200214
0.0105472748166206 -0.001115364950115627 -0.0002353837521491742
0.01128752786285622 -0.001365192057661339 -0.0001908260862914944
0.01212236762745269 -0.001661387304377923 -0.0001333625753410148
0.01306337191963331 -0.002011090548028172 -5.985997996507406e-05
0.0141234922544847 -0.002422249684116931 3.354098118502551e-05
0.01531722436516825 -0.002903610884212377 0.0001515128035013444
0.01666063596779979 -0.003464665046861967 0.0002999367834261955
0.0181713785053527 -0.004115526435702806 0.0004859284828596187
0.01986873891204295 -0.004866720570800873 0.0007181606491935255
0.02177343747058702 -0.005728871305918305 0.001007275792953913
0.02390720520660521 -0.006712236506642464 0.001365790486950417
0.02629214983767448 -0.007826079635092454 0.001808864754861616
0.02894961567431028 -0.009077850282125667 0.002355162362628225
0.0318985275086894 -0.01047216302062949 0.003026973886096318
0.03515301509300214 -0.01200958865862384 0.003850923700747909
0.03871894572936614 -0.013685323125909 0.00485833300907918
0.04258945701264492 -0.01548781825752269 0.006084731128160698
0.0467395904247784 -0.0173975712226222 0.007569389097635427
0.05112020282168552 -0.01938629851466196 0.009353883859272374
0.05565216169388221 -0.02141676482425899 0.01147872640527551
0.06022235214567254 -0.0234434586064276 0.01397938512640098
0.06468357162273337 -0.0254140806210908 0.01688124242438691
0.06886159157803477 -0.02727136971097963 0.0201934203800564
0.07257336529432587 -0.02895397225729172 0.02390362473182656
0.07566119472051479 -0.03039407679139713 0.02797495134031397
0.07805170994316521 -0.03150837478699853 0.03234573527031687
0.0798603622164442 -0.03217802897886588 0.03693685703572916
0.08159799460211486 -0.03221395675130879 0.0416741527029083
0.08464856168367893 -0.03131089372573265 0.04655125366424705
0.0925693418417865 -0.02902657254693605 0.05185343445650898
0.1153755430251665 -0.02494504775450718 0.05922637230763301
0.1889011710331533 -0.01954653458073953 0.07962925242944743
0.5406990329992201 -0.01741730898998089 0.2486182766262943
0.7821551176788641 -0.05068760466596767 -0.2416349186452413
0.3112076147032948 -0.07206888779207087 -0.02882653824134427
0.184263062195625 -0.07665354065048638 -0.001422542116465271
0.1249501249167798 -0.07386772691036921 0.006731499577821709
0.08998434462804154 -0.06784102657033361 0.01011116612699597
0.06689802687967401 -0.06073272328957699 0.01150544172220423
0.05069504192124236 -0.05361803418426696 0.0118463640800631
0.03891844985202252 -0.04698372864351514 0.01157188903599472
0.03018568676809444 -0.04101407238253423 0.01093241281664796
0.02364082602204781 -0.03574484706616692 0.01008618498003046
0.0187149304299758 -0.03114281049275168 0.009138076155965211
0.01500915368083958 -0.02714589126489442 0.008158484638993702
0.0122329054784127 -0.02368329086570692 0.00719395138537149
0.01016873574896525 -0.02068529608332125 0.006274430368442397
0.008650923374128313 -0.01808775830745796 0.005418198526529287
0.007551639166430588 -0.01583379585111171 0.004634927162743926
0.00677158580033457 -0.0138740911275286 0.003928325521771184
0.006233293466676413 -0.0121664721430909 0.00329829813267433
0.005876228587445569 -0.01067517589407542 0.002742034791835115
0.005653171726389756 -0.009370015344810448 0.002255091506041782
0.005527364275237492 -0.008225549287396841 0.001832231866806196
0.005470299050957736 -0.007220328351656527 0.001467690865490842
0.005460062399948516 -0.006336224181839173 0.001155609321458029
0.005479972527534926 -0.005557857749578443 0.000890536515849919
0.005517510082301555 -0.004872117758424399 0.0006671469472259321
0.005563503447166957 -0.004267765282766746 0.0004802942623625308
0.005611361593204213 -0.003735103759413124 0.000325208966781094
0.005656489493516488 -0.003265721015900662 0.0001973184188016734
0.005695897239388333 -0.002852282786393878 9.254924901132377e-05
0.005727817025373206 -0.00248835923095112 7.358990738030609e-06
0.005751387440471416 -0.002168282771492629 -6.151131095995874e-05
0.005766432662750103 -0.001887041918492878 -0.0001168436084139916
0.005773264658507537 -0.001640189076379107 -0.0001608162272946526
0.005772574053452477 -0.001423766571944846 -0.0001953540597075184
0.005765329757310116 -0.001234246830007176 -0.0002220056209437747
0.005752640937450799 -0.001068481979001644 -0.0002420632406585756
0.005735733292913352 -0.0009236642685383259 -0.0002567795622884046
0.005715893177059951 -0.0007972952355460272 -0.0002671051537284918
0.005694404513273281 -0.0006871528150340341 -0.0002740248406951234
0.005672551538448816 -0.0005912702919116055 -0.000278437686637057
0.005651569445852404 -0.0005079160299617846 -0.0002810513985322824
0.005632648780017735 -0.0004355717781908248 -0.000282591632680627
0.005616940494574077 -0.0003729191107822184 -0.0002835543615039238
0.005605539480551881 -0.0003188236422580947 -0.0002843444503122835
0.005599513223927729 -0.0002723199938313149 -0.0002852560404486253
0.005599904294987401 -0.000232603110089482 -0.0002864110643093231
0.005607744805464779 -0.0001990162619786057 -0.0002878948379542282
0.00562407838197721 -0.0001710430231178541 -0.0002896856238212077
0.005649969943267402 -0.0001483013759637144 -0.0002917421705164543
0.005686527810672753 -0.0001305376552341709 -0.0002940113821164893
0.005734919766736333 -0.0001176246174476732 -0.0002964480149973814
0.005796394428468854 -0.0001095615869301381 -0.0002990557980997361
0.00587229945668098 -0.0001064774556067061 -0.0003018465408569599
0.005964105578346294 -0.0001086367257614836 -0.0003048985024150763
0.006073433754493857 -0.0001164495959547525 -0.0003082714619235464
0.006202075625195414 -0.0001304855357494761 -0.0003120170010820339
0.006352037317901432 -0.0001514894845350601 -0.0003161739409552739
0.006525563968988167 -0.0001804036512988477 -0.0003206319166826451
0.006725179672456259 -0.0002183917139329296 -0.0003252501240421216
0.006953743622467043 -0.0002668663462273331 -0.0003297254665530624
0.007214472058734328 -0.0003275223422739752 -0.0003335894890772526
0.007511011156942426 -0.0004023711406475555 -0.000336361172382947