# OOMMF: rectangular mesh v1.0
# Segment count: 1
# Begin: Segment
# Begin: Header
# Title: 
# Desc: time = 6.506020885581314e-11
# Desc: stepsize = 5.386906044976306e-13
# Desc: step = 120
# meshunit: m
# valueunit: (none)
# valuemultiplier: 800000.0000000002
# xmin: 0
# ymin: 0
# zmin: 0
# xmax: 4e-07
# ymax: 1e-07
# zmax: 4e-09
# ValueRangeMaxMag: 1
# ValueRangeMinMag: 0.9999999999999996
# meshtype: rectangular
# xbase: 2e-09
# ybase: 2e-09
# zbase: 1e-09
# xstepsize: 4e-09
# ystepsize: 4e-09
# zstepsize: 2e-09
# xnodes: 100
# ynodes: 25
# znodes: 2
# End: Header
# Begin: Data Text
-0.9445176637259546 0.3284510722594841 -0.002505202837974937
-0.9512923192257715 0.3082899648025046 0.0004700894837925976
-0.9595191344388446 0.2816416148253398 0.001015600465061102
-0.967483313109228 0.2529326551494596 0.001053951723629876
-0.9744722222095081 0.2245059361939333 0.0009862838070141854
-0.9802888458113291 0.197567660793618 0.0008934127989571816
-0.9849768457829744 0.1726846238800331 0.0007962077831761251
-0.9886757495996989 0.1500658839828637 0.0007018674480390058
-0.991550043334064 0.1297233031190565 0.0006133450066230569
-0.9937571363714266 0.1115637532103239 0.0005318651028841699
-0.9954348658400805 0.09544222490914391 0.0004577928928548621
-0.9966983848455478 0.08119222084895013 0.000391049729527312
-0.997641244442389 0.0686428264882534 0.0003312991765540913
-0.9983380874528631 0.05762799503001836 0.0002780823242211906
-0.998847730891593 0.04799121986802364 0.0002308858901579934
-0.999216085252061 0.03958761400032963 0.0001891859044291065
-0.9994787092634801 0.0322844618264215 0.0001524912633553285
-0.9996629496915235 0.02596098088780239 0.0001203552460644253
-0.9997896915009391 0.0205076627812993 9.238887909803228e-05
-0.9998747672852212 0.01582545692625808 6.825979166523387e-05
-0.9999300826049081 0.01182487322926494 4.769541548484936e-05
-0.9999645072964973 0.008425154102882004 3.042393093989832e-05
-0.9999845789741142 0.005553517058043439 1.619410825556487e-05
-0.9999950563004461 0.003144416069201685 4.717087820031925e-06
-0.9999993513303017 0.001138999509249071 -4.369576806613049e-06
-0.9999998670931047 -0.0005154440754401903 -1.145327312723745e-05
-0.999998258914067 -0.00186597995302239 -1.696021569725378e-05
-0.9999956353375052 -0.002954463135908022 -2.129594955983375e-05
-0.9999927110984935 -0.003818001496406848 -2.47882582613439e-05
-0.9999899221058874 -0.004489423593428658 -2.761266540345544e-05
-0.9999875104617959 -0.004997802711453197 -2.980732154009706e-05
-0.9999855872298884 -0.005368831243942699 -3.136190442682822e-05
-0.9999841780633735 -0.005625174214854383 -3.221756257061136e-05
-0.9999832557656895 -0.005786807333886689 -3.239030298045599e-05
-0.9999827642253459 -0.005871134907124083 -3.204899155098278e-05
-0.9999826347712726 -0.005893145855011255 -3.142983524099597e-05
-0.9999827966428777 -0.005865617781116571 -3.076254567561427e-05
-0.999983183003872 -0.005799379458572089 -3.012207723225837e-05
-0.9999837331346282 -0.005703735716655528 -2.941099381705296e-05
-0.9999843937461138 -0.005586720843947 -2.85382014593603e-05
-0.9999851200142411 -0.005455180512951243 -2.74895369136672e-05
-0.9999858757078181 -0.005314855556000647 -2.636829350724313e-05
-0.9999866333434546 -0.005170347278467627 -2.536617280009419e-05
-0.9999873731281015 -0.005025234648326933 -2.451709212845901e-05
-0.9999880803536465 -0.004882477895323729 -2.366918395057536e-05
-0.9999887442667607 -0.004744556992733592 -2.277563074554714e-05
-0.9999893585564424 -0.004613273465162067 -2.195017616548784e-05
-0.9999899208057966 -0.004489747805589125 -2.124754907696828e-05
-0.9999904310349633 -0.004374632942930674 -2.061849592147546e-05
-0.9999908910654552 -0.004268182830841905 -2.003594043581462e-05
-0.9999913045439125 -0.00417018649689515 -1.95229279482497e-05
-0.9999916768151346 -0.004079943167371013 -1.908417403422601e-05
-0.9999920147348766 -0.003996262873587023 -1.86956386404728e-05
-0.9999923266183377 -0.003917444009633406 -1.835414398731593e-05
-0.9999926221862266 -0.003841255808362782 -1.808116241070668e-05
-0.9999929127271402 -0.003764860802117923 -1.785021845093244e-05
-0.9999932115438782 -0.003684637960781636 -1.758572817678642e-05
-0.9999935339848395 -0.003596065914810272 -1.727563159609204e-05
-0.9999938967963788 -0.003493720306915185 -1.698262546986914e-05
-0.9999943176287522 -0.003371117252352762 -1.66936075174694e-05
-0.9999948145123577 -0.003220354488415068 -1.628998172325136e-05
-0.9999954038997775 -0.003031820228790075 -1.566592024346745e-05
-0.9999960967217302 -0.002793979775425943 -1.477558991956118e-05
-0.9999968921727689 -0.002493082296466254 -1.361860808222169e-05
-0.9999977679381917 -0.002112810861113002 -1.220241744753552e-05
-0.9999986653183542 -0.001633784712135682 -1.044145887712878e-05
-0.9999994665299848 -0.00103289560780734 -8.149143104710312e-06
-0.9999999600444828 -0.0002826393736198164 -5.100711933149172e-06
-0.9999997890020328 0.0006496112433102354 -1.059156136813951e-06
-0.9999983756280758 0.001802421658599683 4.168216461576606e-06
-0.9999948120694329 0.003221136351210202 1.071570862393789e-05
-0.9999877044999204 0.004958880721942532 1.873405135383896e-05
-0.9999749521587646 0.007077728812523906 2.845930896458682e-05
-0.9999534366301498 0.009650023263707093 4.028104085557763e-05
-0.9999185891090204 0.01275978678988419 5.472935416964269e-05
-0.9998637956379222 0.01650408805184292 7.245760155819136e-05
-0.9997795891496631 0.02099438587939863 9.424052892826172e-05
-0.9996525687073682 0.02635767929133192 0.0001209096158451763
-0.9994639794720455 0.03273729103508961 0.0001533414029193907
-0.9991878811229364 0.04029319016964913 0.000192465604199785
-0.9987888416836268 0.04920154957096031 0.0002392657415650504
-0.9982191145372189 0.05965326869441041 0.0002947992581342277
-0.9974153034444445 0.07185111480680147 0.0003602163881590213
-0.9962945950068297 0.08600516956634009 0.0004367700107254708
-0.994750755392361 0.1023262342030042 0.0005257757686033379
-0.992650227024349 0.1210170717860316 0.0006285895661928039
-0.9898288106303987 0.1422616193909574 0.0007465214479603288
-0.9860895453564847 0.1662126133231902 0.0008807445237263061
-0.9812024087281629 0.1929786715865251 0.001032191237410678
-0.9749063390434691 0.2226121889175782 0.001201431722815103
-0.966913756951172 0.2550997029751443 0.001388582213100953
-0.9569173596121239 0.2903560374598574 0.001593230545311365
-0.9445987245254183 0.328222420833237 0.001814411012415014
-0.9296387654904044 0.36846649865998 0.002050624961183332
-0.911732337878866 0.4107783517028157 0.002299964837657126
-0.8906154536530695 0.454749993663775 0.002560659511422824
-0.8661294479867538 0.4998117104681615 0.00283432691324315
-0.8383933680623715 0.5450565602375 0.003147464232803161
-0.8083395135525299 0.5887050011255294 0.003694926176463886
-0.7799912340688919 0.6257655082589898 0.005586004748916793
-0.9258278145226991 0.3779259194437839 -0.003854512769817939
-0.9370348341410248 0.3492354344899238 -0.0005752416324746954
-0.9488751562998857 0.3156515824926348 0.0001273843084376206
-0.9595005459622493 0.2817066345135658 0.0002727071419997076
-0.9684742449175503 0.2491135251795216 0.0002974962388172353
-0.9757916271915249 0.2187021186416804 0.000289144524078432
-0.9816199615626752 0.1908459551606627 0.0002691848914688359
-0.9861846109041938 0.1656497911643652 0.0002447507833175109
-0.9897137521557148 0.1430616680708948 0.0002189123775141499
-0.9924136613087277 0.1229434321338397 0.0001932432610539769
-0.9944601091536903 0.1051145226703089 0.0001685995931731217
-0.9959977306521356 0.08937840555039725 0.0001454546808644665
-0.9971429211763223 0.07553793327934349 0.0001240315908785179
-0.997987946823496 0.06340384131794165 0.0001044085798935459
-0.998605156689426 0.05279899183212947 8.657249683276644e-05
-0.999050803067203 0.04356016444613366 7.045709470214158e-05
-0.9993683110634909 0.03553836951368703 5.598583889814582e-05
-0.9995909812418593 0.02859839791943485 4.30857044814815e-05
-0.9997441806406437 0.0226179634367568 3.170395665901613e-05
-0.9998470956161252 0.01748670673164157 2.181009111227534e-05
-0.9999141239670497 0.0131051330229845 1.340361844706069e-05
-0.9999559726919861 0.009383636603984504 6.458143997889794e-06
-0.9999805209378432 0.006241613892998352 9.437327892086399e-07
-0.9999934961547584 0.00360661028733502 -3.227781544820824e-06
-0.9999990007365965 0.001413678495169551 -6.238633535229345e-06
-0.9999999218495766 -0.0003952615782107889 -8.314130768473204e-06
-0.9999982477697904 -0.001871994269054754 -9.736810244461537e-06
-0.9999953104422077 -0.003062511597158995 -1.07846775752953e-05
-0.9999919697036403 -0.004007541884259416 -1.167387496474392e-05
-0.9999887514873991 -0.004743073144173789 -1.24828456617586e-05
-0.9999859498642932 -0.005300933951031333 -1.316257664662125e-05
-0.9999837021948629 -0.005709217021315939 -1.362566956679649e-05
-0.9999820436735292 -0.005992673996488176 -1.374348521319599e-05
-0.9999809462044355 -0.006173090527416505 -1.346928625342678e-05
-0.9999803468377977 -0.006269431497023079 -1.291749760873059e-05
-0.9999801671871916 -0.006298022033708388 -1.227756597452523e-05
-0.9999803258695134 -0.006272777379808045 -1.174074668795703e-05
-0.9999807457094361 -0.006205488017757861 -1.135170373740558e-05
-0.9999813564818465 -0.006106272846558538 -1.098404136770207e-05
-0.9999820965056297 -0.005983858078611807 -1.052141629498249e-05
-0.9999829138614954 -0.005845672462142397 -9.926622812990796e-06
-0.9999837665366885 -0.005697944972488188 -9.283736007995172e-06
-0.9999846225752869 -0.005545677237355028 -8.771520480536069e-06
-0.9999854588839076 -0.005392768295981375 -8.417002431611416e-06
-0.9999862583089603 -0.005242435343242634 -8.057085126446883e-06
-0.9999870082966512 -0.005097369872832787 -7.63494529664825e-06
-0.99998770139522 -0.004959536834483744 -7.258870696237097e-06
-0.9999883346241575 -0.004830172547692586 -6.983051654177363e-06
-0.9999889078427905 -0.00471000485674677 -6.75513320544958e-06
-0.9999894229979537 -0.004599331402138823 -6.547687393581047e-06
-0.9999898841459179 -0.004497951208976734 -6.383989602434228e-06
-0.9999902973041264 -0.00440513998281345 -6.271877207947656e-06
-0.999990670264526 -0.004319646465957092 -6.189721176860065e-06
-0.9999910125221593 -0.004239674181992902 -6.143049406172553e-06
-0.9999913352357447 -0.004162861452326996 -6.161272294784473e-06
-0.9999916514420794 -0.004086197179997501 -6.224828276725108e-06
-0.9999919766273444 -0.00400582596758471 -6.265257595047304e-06
-0.9999923287616063 -0.003916934815546981 -6.292060750294798e-06
-0.9999927276059434 -0.003813750697362308 -6.390879261007123e-06
-0.9999931942423295 -0.003689366598987655 -6.566608977810047e-06
-0.9999937506126019 -0.003535348726128298 -6.717558684378429e-06
-0.999994417360806 -0.003341437022898266 -6.770830703655232e-06
-0.9999952094703914 -0.003095317606946349 -6.721605406951006e-06
-0.9999961293382966 -0.002782312810858566 -6.621689501643914e-06
-0.9999971558567056 -0.002385002267386779 -6.533280848992958e-06
-0.9999982277195515 -0.001882688611710465 -6.430153894995202e-06
-0.9999992178779826 -0.001250681844369815 -6.19248757993016e-06
-0.9999998943706562 -0.0004595937030838557 -5.683670013613042e-06
-0.9999998619456358 0.0005254387937166898 -4.773152789337171e-06
-0.9999984764108982 0.001745612874692536 -3.402013371597952e-06
-0.9999947208164413 0.003249359433374692 -1.587384295040696e-06
-0.9999870284813664 0.005093414236706413 6.477084753097821e-07
-0.9999730319667605 0.007344067539943147 3.342525497897774e-06
-0.9999492099560489 0.01007856457826872 6.656950387427688e-06
-0.9999103953006315 0.01338660718286377 1.085660975985739e-05
-0.9998490987838609 0.01737179886550973 1.628732905832412e-05
-0.9997545903344242 0.02215307109412333 2.33740375461101e-05
-0.9996116702931532 0.0278658851386994 3.254487912852672e-05
-0.999399055233363 0.03466304145303802 4.422539669310098e-05
-0.9990872972142786 0.04271497492018195 5.88441621184482e-05
-0.9986361660397887 0.05220921348080991 7.684442926389327e-05
-0.9979914499228014 0.063348686947328 9.87068054385195e-05
-0.9970811862029163 0.0763484937630957 0.0001249811637606356
-0.9958114245997972 0.09143075087008568 0.0001563069244111812
-0.9940617671130102 0.1088171207262308 0.0001933934120506558
-0.9916811009786485 0.1287188322835951 0.0002370175580451228
-0.9884841284818007 0.1513243034550378 0.0002879642725096204
-0.9842494629437137 0.1767848248980362 0.0003469593367378132
-0.978720084630906 0.2051994738160231 0.0004145910018401231
-0.9716068135346659 0.2366008423693548 0.0004912057857014963
-0.9625950457579744 0.2709436198659523 0.0005768328501449725
-0.9513544532318182 0.3080977992696888 0.0006711193353432283
-0.937550917056938 0.3478472076821069 0.0007733262281366641
-0.9208603098182948 0.3898916659422494 0.0008824002102500216
-0.9009860024844033 0.433847010824133 0.0009972593138987342
-0.8776887658950012 0.4792297784925081 0.00111786749256627
-0.8508568936175186 0.5253960245183527 0.001250601398009797
-0.8207075246432133 0.5713467291999357 0.001440148097976435
-0.7884712867468826 0.6150684110666764 0.00196969125205969
-0.7592816494430432 0.6507477468243632 0.004329760047109216
-0.9004696315440193 0.4348998830022541 -0.004066255230976022
-0.916306333289074 0.400477251456669 -0.0008213647446437148
-0.9329114067741818 0.3601059567316862 -8.388667005824344e-05
-0.9474342637441983 0.3199504752073743 9.642646806427076e-05
-0.9594187087248981 0.2819853171309398 0.0001492354243581638
-0.9690277881899068 0.2469516530554601 0.0001636122009681691
-0.9765922687566259 0.2150988474157526 0.0001626198037970676
-0.9824678226256729 0.1864321691671282 0.0001542880690901211
-0.9869829909400334 0.1608246105673029 0.000142235511964017
-0.990421182822222 0.1380791951239569 0.0001284170949134916
-0.9930175367855649 0.1179667692358365 0.0001139841549648479
-0.9949623670925221 0.1002490804920906 9.96500636579569e-05
-0.9964071407311867 0.08469239949150431 8.583863966660907e-05
-0.9974709649760225 0.07107509219634076 7.27948053926062e-05
-0.9982466554059314 0.0591913109583537 6.064571431793195e-05
-0.9988060082516166 0.04885238413799891 4.944192925808846e-05
-0.9992042042921048 0.03988679716240431 3.920594960183658e-05
-0.9994833943950512 0.03213943732587252 2.99486610285543e-05
-0.9996755750435422 0.02547045721766223 2.169069645540886e-05
-0.9998048702482628 0.01975401778427262 1.446486955812552e-05
-0.9998893313785508 0.01487699317741879 8.327843814115823e-06
-0.9999423483811203 0.01073777924579356 3.304303910281833e-06
-0.9999737530350202 0.007245221922579234 -5.90381741064152e-07
-0.9999906791347755 0.004317595625730165 -3.403314911509493e-06
-0.999998229367129 0.001881816865948197 -5.281026834196918e-06
-0.9999999918737476 -0.0001273236001826192 -6.419112993536166e-06
-0.9999984373388047 -0.001767843287866001 -7.075152671408776e-06
-0.9999952222845503 -0.003091173195214608 -7.506631035882637e-06
-0.9999914186352002 -0.004142776044051961 -7.912516463513317e-06
-0.9999876854351454 -0.004962752081832773 -8.356694061827208e-06
-0.9999843953811332 -0.005586494181594875 -8.774319975321673e-06
-0.999981727671971 -0.00604518321269294 -9.061148066795241e-06
-0.9999797352526576 -0.006366239211794716 -9.073171276071306e-06
-0.9999783926437203 -0.00657374848540094 -8.748228762498292e-06
-0.9999776306869508 -0.006688651481667967 -8.189530013149603e-06
-0.9999773602649447 -0.006728959810361186 -7.577808984309299e-06
-0.9999774875281645 -0.006710021345395441 -7.099566167304761e-06
-0.9999779228085871 -0.006644836284027256 -6.795676989993744e-06
-0.9999785842283354 -0.006544542916623933 -6.534969729191357e-06
-0.9999793997362415 -0.00641872766186582 -6.192606803236527e-06
-0.9999803085680942 -0.006275543264983929 -5.726059532812514e-06
-0.9999812614603769 -0.006121821700494349 -5.213514956103066e-06
-0.9999822207678293 -0.005963063380255331 -4.833558118819544e-06
-0.9999831591347536 -0.005803570073202007 -4.613348644844054e-06
-0.9999840562155651 -0.005646883689413061 -4.389041568309622e-06
-0.9999848971033798 -0.005495957455611657 -4.09737657566137e-06
-0.9999856727706115 -0.005352965412710618 -3.846750723064592e-06
-0.999986379370337 -0.005219296904701051 -3.691204603172529e-06
-0.9999870163870727 -0.005095786932481696 -3.580316171136217e-06
-0.9999875857769593 -0.00498279839322837 -3.484281839958595e-06
-0.9999880919343178 -0.004880161657746334 -3.428728264954182e-06
-0.9999885415628808 -0.004787142284458509 -3.419176997484216e-06
-0.9999889434624826 -0.004702439896340745 -3.436369517173472e-06
-0.9999893084772448 -0.004624166847316763 -3.488542439209785e-06
-0.9999896494292109 -0.00454983751297784 -3.612291636261352e-06
-0.9999899814702675 -0.004476264602730584 -3.781479195109225e-06
-0.999990322801211 -0.004399350919511232 -3.926396753436186e-06
-0.9999906947634759 -0.004313973796478191 -4.067363209488312e-06
-0.9999911210513699 -0.004214000457539944 -4.309015083993739e-06
-0.9999916274027429 -0.004092078052057198 -4.650754056015098e-06
-0.999992241279853 -0.003939207438086133 -4.985538867467209e-06
-0.9999929895897623 -0.003744428369557414 -5.245409451781572e-06
-0.9999938938717932 -0.003494594320921335 -5.446148079984357e-06
-0.9999949627326081 -0.00317403172491493 -5.658522841105972e-06
-0.9999961797341488 -0.002764142092339739 -5.96663729560518e-06
-0.9999974848711586 -0.002242813202856719 -6.347752876613076e-06
-0.9999987459956067 -0.001583654780980408 -6.689454326655862e-06
-0.9999997147785149 -0.0007552454678407565 -6.868155969550625e-06
-0.9999999608663072 0.0002796808228208001 -6.783917640096876e-06
-0.9999987751294823 0.001565151221860985 -6.417732203204964e-06
-0.9999950295788462 0.003152900811075493 -5.837581747261355e-06
-0.9999869768835684 0.005103531832061988 -5.108827931715416e-06
-0.9999719657082289 0.007487842121307772 -4.241114552874483e-06
-0.9999460399103353 0.010388323151884 -3.119257135493467e-06
-0.9999033798715588 0.01390075246449627 -1.534128237466757e-06
-0.9998355340064877 0.01813573647036604 7.991282022961884e-07
-0.9997303742702612 0.02322022272858286 4.228215484471632e-06
-0.9995706985726198 0.02929877936697319 9.091206809548229e-06
-0.9993323942218981 0.03653444418661585 1.570678529737981e-05
-0.9989820691522776 0.04510903365445313 2.439251844214635e-05
-0.998474071224284 0.0552225301343814 3.547337556577476e-05
-0.9977468444629289 0.06709122097580299 4.931778067403163e-05
-0.996718639505095 0.08094411194673433 6.636464767880554e-05
-0.9952827021887547 0.09701718985606668 8.715665535603492e-05
-0.9933022378997179 0.1155450196615339 0.0001123157487650705
-0.990605661359 0.1367494181433926 0.0001425515409343135
-0.9869828845047586 0.1608252274936704 0.000178595283058811
-0.982183615362445 0.1879236462286366 0.0002211372662869757
-0.975918705709971 0.2181343772690495 0.0002707375457495665
-0.9678654430065924 0.2514684410325294 0.0003277168307397636
-0.9576771927655023 0.2878441257714759 0.0003920658631444366
-0.9449970877041385 0.3270784149319215 0.0004633749219355689
-0.9294748428969728 0.3688851093850815 0.0005408286268349954
-0.9107860768695393 0.4128781099389135 0.0006233088026935282
-0.8886562916350326 0.4585733218989761 0.000709774618680928
-0.862900463197689 0.5053732774751947 0.0008006417382441902
-0.8335140719577969 0.552497488084069 0.0009041621126212726
-0.8009273490319485 0.5987605807269745 0.001071699655382879
-0.7667999646990429 0.641884130430378 0.001605378205875116
-0.7368926968212336 0.6759978734692168 0.004003553000236669
-0.8715169791749199 0.4903485631464037 -0.004054827996245411
-0.8917785006100928 0.4524712856970188 -0.000917316358256626
-0.9134017511822609 0.4070592185826006 -0.0001830412555293634
-0.932387476186871 0.3614603629991983 1.51777594970068e-05
-0.9480037115311819 0.3182592583463392 8.602291146089371e-05
-0.9604568287944772 0.2784289259630585 0.0001149309073648469
-0.9702071426880995 0.2422768759736572 0.0001250817267705892
-0.9777444503602144 0.2097993663187855 0.000125227943428056
-0.9835130976252021 0.1808368670465806 0.000119651396191811
-0.9878905077663741 0.155152609983635 0.0001108167922459988
-0.9911861547414741 0.1324764001559842 0.0001002522900394376
-0.9936483093295804 0.112530126875644 8.894839714447611e-05
-0.9954732129622617 0.09504249714273916 7.75336314313749e-05
-0.9968143218563329 0.07975715223523044 6.640350132031551e-05
-0.9977906477427186 0.06643658754013021 5.579595536421787e-05
-0.9984938588793916 0.05486357332984502 4.58434507418295e-05
-0.9989941341712536 0.04484103644908115 3.662785167437624e-05
-0.999344886143711 0.03619112795770778 2.820570288555512e-05
-0.9995865220015668 0.02875386247322977 2.063204778845443e-05
-0.9997494103890464 0.02238562555861124 1.396795320048743e-05
-0.9998562088757518 0.01695763850995513 8.293021270891395e-06
-0.9999236797301614 0.0123545417377978 3.652681637811455e-06
-0.9999641025439677 0.008473111791444275 7.779275756845857e-08
-0.9999863702019467 0.005221053941546331 -2.464667726840916e-06
-0.999996834758341 0.002516039824440617 -4.111015494774718e-06
-0.9999999594334504 0.0002847939246332367 -5.05146388289542e-06
-0.9999988176828528 -0.001537726307273335 -5.540732885396405e-06
-0.9999954727674081 -0.003009054773551451 -5.835853620800804e-06
-0.9999912639755855 -0.00417994435956299 -6.136881270074674e-06
-0.9999870200360125 -0.00509506792249391 -6.508485652571108e-06
-0.9999832159862927 -0.005793763744994514 -6.883195552849754e-06
-0.999980087867117 -0.006310611550115173 -7.150951822953644e-06
-0.9999777155394463 -0.00667595485468946 -7.161565958746712e-06
-0.9999760814964398 -0.006916385481739405 -6.847882697532975e-06
-0.999975113253637 -0.007054986433959917 -6.308131346144344e-06
-0.9999747122890686 -0.007111592623338682 -5.723074058246098e-06
-0.9999747726883926 -0.007103095024512255 -5.27918902206197e-06
-0.9999751921542481 -0.007043795204462436 -5.019140274139839e-06
-0.9999758767654208 -0.006945924279312077 -4.809734123739939e-06
-0.9999767436064483 -0.006819987227336434 -4.523546146942915e-06
-0.9999777225533829 -0.006674906743187081 -4.113285700761745e-06
-0.9999787565834485 -0.006518156828259535 -3.658158254724381e-06
-0.9999798019126447 -0.0063557655418272 -3.335426519163389e-06
-0.9999808264816235 -0.006192467928963153 -3.174526223873162e-06
-0.9999818063808928 -0.006032155348607937 -3.009364140180912e-06
-0.9999827240238591 -0.00587806482684056 -2.777375644784039e-06
-0.9999835685448413 -0.005732593972118939 -2.583592522691586e-06
-0.9999843349542606 -0.005597306487034693 -2.484910832989811e-06
-0.9999850221389294 -0.005473161052312021 -2.428935777356386e-06
-0.9999856318413545 -0.00536060678829807 -2.389050839578495e-06
-0.9999861686239776 -0.005259520418668609 -2.388179596418397e-06
-0.9999866396930152 -0.005169180742539926 -2.433670797161154e-06
-0.9999870547372731 -0.005088256244483027 -2.502762191765012e-06
-0.9999874258299881 -0.005014795618256198 -2.611632884912394e-06
-0.9999877674133438 -0.004946212273042726 -2.797388216562406e-06
-0.9999880967420606 -0.004879176672861561 -3.03085763726619e-06
-0.9999884348678715 -0.004809378343728777 -3.232822780604375e-06
-0.999988806728408 -0.004731427486771437 -3.439706246236127e-06
-0.9999892403642811 -0.004638872866923706 -3.767233674660671e-06
-0.9999897667721102 -0.004523973178641573 -4.211788528255428e-06
-0.9999904199191298 -0.004377219248582627 -4.648834202040647e-06
-0.9999912343598621 -0.004187024990456121 -5.016784231098361e-06
-0.9999922401666268 -0.003939489561403512 -5.34102083623163e-06
-0.999993454822328 -0.003618049178150058 -5.713923030221607e-06
-0.9999948702226014 -0.00320304381859409 -6.227220976652446e-06
-0.9999964325973775 -0.002671094436766618 -6.857730985765645e-06
-0.9999980114016676 -0.001994275997031489 -7.480491095500295e-06
-0.9999993509170139 -0.001139342756249378 -7.977106065740331e-06
-0.9999999977303797 -6.686614778022239e-05 -8.255802627507117e-06
-0.9999991938832191 0.001269710029426602 -8.327817896646449e-06
-0.9999957219275818 0.002925073995427857 -8.285868450407975e-06
-0.9999876828890443 0.004963265315891146 -8.222172602332956e-06
-0.9999721805769181 0.007459088795394756 -8.160018896401733e-06
-0.9999448767396277 0.01049968657612863 -7.998322997778425e-06
-0.9998993703375336 0.01418623071277706 -7.534390716492157e-06
-0.9998263431856768 0.01863554210877076 -6.501476330592118e-06
-0.9997123976119203 0.02398170219421825 -4.570873507677428e-06
-0.9995385002491117 0.03037740143061124 -1.442200120842954e-06
-0.9992779343281593 0.03799486747979797 3.168472236828591e-06
-0.9988936554450722 0.04702621631226468 9.535895575970206e-06
-0.9983349583988941 0.05768284421213111 1.795208377953863e-05
-0.9975333956099323 0.07019347417033553 2.875441634332953e-05
-0.9963979626542671 0.08480034329727058 4.236850836461012e-05
-0.9948096912569764 0.101753008115385 5.933522646211072e-05
-0.9926159911383075 0.1212991660687978 8.029650752495149e-05
-0.9896253417118626 0.1436720982180531 0.0001059967014667965
-0.985603236895692 0.1690746598140284 0.000137220641063832
-0.9802705851060989 0.1976601868077319 0.0001747194282860818
-0.9733058926644567 0.2295116365076033 0.0002191169700225644
-0.9643524529410485 0.2646209991382779 0.0002707796918945031
-0.9530312184584802 0.3028719002036005 0.0003297129117989224
-0.9389591891814217 0.3440283195583188 0.0003954663648029491
-0.9217723390642567 0.3877312687056211 0.000467123043373786
-0.9011523640443941 0.433502158572207 0.0005434063271321099
-0.876859735473129 0.4807458954943488 0.0006231142194206065
-0.8487856756812463 0.5287365860454938 0.0007066366009318565
-0.8170624088092396 0.5765486760619136 0.0008026469317300614
-0.7823442154456758 0.6228455668412041 0.0009635481039487227
-0.7466056190134069 0.6652652351225951 0.001488823322402089
-0.7158596636054215 0.6982336316603823 0.003838963543173876
-0.8409911936366685 0.541034015806982 -0.004000745598165212
-0.8652363996660219 0.5013631336812269 -0.0009903930126716231
-0.8916570453675112 0.4527114300564373 -0.0002730251547548576
-0.9152042026600908 0.4029904011043333 -6.364805834937611e-05
-0.934738647227747 0.3553359830401828 2.314536788221649e-05
-0.9503795254984791 0.311092836740513 6.664852309257098e-05
-0.9626425937186177 0.2707752368603122 8.866754514733055e-05
-0.9721214368333547 0.2344779359380899 9.801666417421919e-05
-0.9793696326321272 0.202076997189256 9.942326214758203e-05
-0.9848626514240018 0.1733365185006345 9.583404404151684e-05
-0.9889920461385794 0.1479686612733553 8.919415315313358e-05
-0.9920722986440329 0.1256684038669086 8.082504442604878e-05
-0.9943518756912785 0.1061336053338502 7.161057783878131e-05
-0.9960248112037611 0.08907621234404446 6.213654406858828e-05
-0.9972412988824026 0.07422795307222566 5.278300309370082e-05
-0.9981167611887574 0.06134271853177975 4.378578856479053e-05
-0.9987393394543322 0.05019691803375797 3.530206462822839e-05
-0.9991759384593727 0.04058870841398728 2.744295208217181e-05
-0.9994770345654578 0.03233661955076329 2.030437286505e-05
-0.9996804617249613 0.02527793998750739 1.397697627066945e-05
-0.9998143738542564 0.01926701225046236 8.565120648630807e-06
-0.9998995492480096 0.01417361621263447 4.133303979286141e-06
-0.9999511768557328 0.009881493020054867 7.276209303056537e-07
-0.9999802369768774 0.00628694304645918 -1.67292376613304e-06
-0.9999945626112913 0.003297686710950248 -3.195046406878211e-06
-0.9999996540580782 0.0008317857425261813 -4.025150748100583e-06
-0.9999992998672517 -0.001183319695074844 -4.41643006329919e-06
-0.9999960472245608 -0.002811674562839634 -4.62665864466408e-06
-0.9999915553316427 -0.004109652270585021 -4.859677618531739e-06
-0.9999868580400969 -0.005126765083896793 -5.183546593742581e-06
-0.9999825564226108 -0.005906506573765393 -5.531138611911803e-06
-0.9999789590487279 -0.006487019832711285 -5.789001990786338e-06
-0.9999761829959632 -0.006901695961772782 -5.802985278285175e-06
-0.9999742254055798 -0.007179728007132027 -5.50038541796498e-06
-0.9999730147319078 -0.007346412949303885 -4.975725329539393e-06
-0.9999724456951934 -0.007423464888416534 -4.407213647618223e-06
-0.999972401906244 -0.00742936134390617 -3.984817004767979e-06
-0.999972769374456 -0.007379735462650059 -3.752591012228407e-06
-0.9999734426491532 -0.007287934110024843 -3.57886228266866e-06
-0.999974328223436 -0.007165394824220617 -3.331784791045653e-06
-0.9999753467020847 -0.007021821649128967 -2.961886573817954e-06
-0.9999764332784307 -0.006865339122961507 -2.54452122392731e-06
-0.9999775378951784 -0.00670251445227541 -2.261339288602679e-06
-0.9999786236481835 -0.006538519870641397 -2.141350997373043e-06
-0.9999796628677118 -0.00637760510680954 -2.019668209451272e-06
-0.9999806350989602 -0.006223296854204553 -1.828714373519873e-06
-0.9999815273952483 -0.00607822880905256 -1.676564461003829e-06
-0.9999823334121971 -0.0059441450924421 -1.617745153343009e-06
-0.9999830511755552 -0.005822143853908886 -1.603339835892342e-06
-0.999983681990104 -0.005712770863878046 -1.603349330878332e-06
-0.9999842303131974 -0.0056159702826928 -1.644850063137178e-06
-0.9999847036309923 -0.005531048819446359 -1.730108090503335e-06
-0.999985112253332 -0.005456671907424955 -1.839918842245187e-06
-0.9999854692795818 -0.005390846476414522 -1.990426861121271e-06
-0.9999857905332588 -0.005330921741541163 -2.226777204572419e-06
-0.9999860952241653 -0.005273457313039759 -2.508753229975389e-06
-0.9999864071113906 -0.00521397975224069 -2.755850704454489e-06
-0.9999867547280762 -0.005146878601854228 -3.011231417948834e-06
-0.9999871705116337 -0.005065451659122688 -3.409607236383181e-06
-0.9999876910026161 -0.004961635594514143 -3.934865234943477e-06
-0.9999883571740649 -0.004825504790099419 -4.453713725188512e-06
-0.9999892121688397 -0.004644945846776489 -4.901324110416069e-06
-0.9999902960033056 -0.004405436517218551 -5.321046275849847e-06
-0.9999916372601438 -0.004089666973953483 -5.815381799070111e-06
-0.9999932394161214 -0.003677102108057758 -6.491416273092137e-06
-0.999995059775415 -0.003143305785995262 -7.31435482229366e-06
-0.9999969764118611 -0.002459085324894056 -8.154754107088542e-06