# OOMMF: rectangular mesh v1.0
# Segment count: 1
# Begin: Segment
# Begin: Header
# Title: 
# Desc: time = 1.0437322628415058e-11
# Desc: stepsize = 5.473673951853235e-13
# Desc: step = 20
# meshunit: m
# valueunit: (none)
# valuemultiplier: 800000.0000000002
# xmin: 0
# ymin: 0
# zmin: 0
# xmax: 4e-07
# ymax: 1e-07
# zmax: 4e-09
# ValueRangeMaxMag: 1
# ValueRangeMinMag: 0.9999999999999996
# meshtype: rectangular
# xbase: 2e-09
# ybase: 2e-09
# zbase: 1e-09
# xstepsize: 4e-09
# ystepsize: 4e-09
# zstepsize: 2e-09
# xnodes: 100
# ynodes: 25
# znodes: 2
# End: Header
# Begin: Data Text
-0.9439732017046356 0.3300134180204723 -0.002395493674353279
-0.950833590705894 0.3097017351210328 0.0005639577619967902
-0.9591503704954217 0.2828946289093054 0.001093486516207787
-0.9671928780982184 0.2540407204711332 0.001117541315570773
-0.9742456413062361 0.2254869255517822 0.001037690226005123
-0.9801128134120962 0.1984389053132002 0.0009347959797842657
-0.9848403289718566 0.1734613447708906 0.000829639005312771
-0.9885699984559644 0.1507608263471638 0.0007289663193688936
-0.9914682054395245 0.1303472061555896 0.0006351771095783894
-0.9936938707552724 0.1121257755860878 0.0005492473230194986
-0.995386035715302 0.09595007869536722 0.0004714884179255853
-0.9966607927061966 0.08165232928610459 0.000401751676403912
-0.9976124126677192 0.06906054399178302 0.0003396392953365691
-0.9983160910521774 0.05800776950649979 0.0002846457120589782
-0.9988310688176198 0.04833673722106325 0.0002362191196143494
-0.9992035833364784 0.03990189834126646 0.0001937944889322487
-0.9994694452258972 0.03256997802472231 0.0001568161524858034
-0.9996561960685415 0.02621972728723618 0.0001247507757725789
-0.9997848719333082 0.02074127348755717 9.709486199179077e-05
-0.9998714236412662 0.01603529860202794 7.337800064413042e-05
-0.9999278498242113 0.01201217380227968 5.316458311778899e-05
-0.9999630950266727 0.00859111662260221 3.605348318683884e-05
-0.9999837580322133 0.005699403640185653 2.167758978053399e-05
-0.9999946480935792 0.003271649441140503 9.702184659828008e-06
-0.9999992198078486 0.001249153178312008 -1.763061778379435e-07
-0.9999999114749161 -0.0004206927478516661 -8.232342209839366e-06
-0.9999984068884064 -0.001784938145419458 -1.471277661283159e-05
-0.9999958365578213 -0.002885562932721785 -1.98389459865317e-05
-0.9999929311797585 -0.003759923361098131 -2.380825314350914e-05
-0.9999901376277747 -0.004441163040102701 -2.679616984573535e-05
-0.999987705683296 -0.004958592915490848 -2.895782610611241e-05
-0.9999857520774635 -0.005338044219881783 -3.042984625995379e-05
-0.9999843070828154 -0.005602196570282387 -3.133191340669723e-05
-0.9999833478077688 -0.005770883635682231 -3.176838090536804e-05
-0.9999828214744024 -0.00586137722361393 -3.182979276906028e-05
-0.9999826612457755 -0.005888650916914072 -3.159422354454018e-05
-0.9999827965955072 -0.005865623925021372 -3.112874302956567e-05
-0.9999831597515503 -0.005803385532381846 -3.049044962226357e-05
-0.9999836893758451 -0.005711400749901089 -2.9727876380773e-05
-0.9999843323520041 -0.005597697416217904 -2.88816958939574e-05
-0.9999850443219088 -0.005469035498992383 -2.79860731543378e-05
-0.9999857894403584 -0.005331058488699829 -2.706903215888436e-05
-0.9999865396736292 -0.00518842823418474 -2.615376701127084e-05
-0.9999872738763749 -0.00504494274446331 -2.525867094231597e-05
-0.9999879767945486 -0.004903638552339828 -2.439861979128709e-05
-0.9999886380992188 -0.004766876989474301 -2.358467072839853e-05
-0.9999892515046326 -0.00463641609527484 -2.28253311081711e-05
-0.9999898140114958 -0.004513466926533001 -2.212593684289724e-05
-0.9999903252816578 -0.004398736326190673 -2.148991428811491e-05
-0.99999078715717 -0.004292454219536918 -2.091784783855141e-05
-0.9999912033102928 -0.004194387382632865 -2.04087337679834e-05
-0.9999915790254426 -0.004103837210493366 -1.995874236421397e-05
-0.9999919210908833 -0.004019623150872352 -1.956245082457506e-05
-0.9999922377946657 -0.003940048393404023 -1.921129754815799e-05
-0.9999925389911822 -0.003862849331286957 -1.889476586634927e-05
-0.9999928362183573 -0.003785124312379934 -1.859851717780867e-05
-0.9999931428064083 -0.00370324250777478 -1.830547825277576e-05
-0.9999934739169326 -0.003612727470190064 -1.79936239485324e-05
-0.9999938463891505 -0.003508115273472443 -1.763689746070255e-05
-0.9999942782340712 -0.003382780393388405 -1.720259181560132e-05
-0.9999947875045089 -0.003228728313536823 -1.665200307124446e-05
-0.9999953901626345 -0.0030363464033932 -1.593733152248368e-05
-0.9999960963530929 -0.002794110505517365 -1.500193102227706e-05
-0.9999969042377475 -0.00248823735318666 -1.377661334504426e-05
-0.9999977901357493 -0.002102278592807438 -1.217931203314777e-05
-0.9999986931776668 -0.001616644900271066 -1.011062718312572e-05
-0.9999994918847601 -0.001008054898671856 -7.452670164278069e-06
-0.9999999690170257 -0.0002488964319683134 -4.063634582497051e-06
-0.9999997595250525 0.0006935054334201443 2.244647452746719e-07
-0.9999982744123653 0.001857724627455467 5.612455085193464e-06
-0.9999945905655181 0.003289177326121601 1.233769217053354e-05
-0.9999872929709588 0.005041177328657 2.068222576548449e-05
-0.9999742510089857 0.007176096387927766 3.097819474921072e-05
-0.999952304485814 0.009766619221073924 4.361765714151419e-05
-0.9999168276715484 0.01289706366622486 5.905976233482467e-05
-0.9998611308371772 0.0166647226685175 7.784203238689876e-05
-0.999775649128383 0.0211811541663907 0.0001005887650757221
-0.9996468588853669 0.02657331614290509 0.0001280226100015882
-0.9994558537702851 0.03298439710290552 0.0001609722599008306
-0.9991765101317264 0.04057414753707279 0.0002003811947333837
-0.9987731779650194 0.0495184593398767 0.000247310048348599
-0.9981978567043307 0.06000789198658463 0.0003029359774595729
-0.9973868620094992 0.07224480374648862 0.0003685410086757265
-0.9962570675606496 0.08643874636471213 0.0004454911353115778
-0.9947019188874385 0.1027998352361854 0.0005351981508113395
-0.9925875581573316 0.1215299592122163 0.0006390658356625089
-0.9897495490538162 0.1428119566217293 0.0007584152161524014
-0.9859908060443265 0.1667972735236685 0.0008943942807997098
-0.9810813518045765 0.1935930863919073 0.001047875259625852
-0.9747603871067548 0.2232503099663918 0.001219355321033229
-0.9667408384000631 0.2557541132899494 0.001408866499772817
-0.9567161433716496 0.2910182294771202 0.001615897298377726
-0.94436881912343 0.328883186159293 0.001839382812210809
-0.9293808284837958 0.3691164560778059 0.002077859315244288
-0.9114479882527009 0.4114087233450235 0.002329606344843788
-0.8903070220637735 0.4553533609408889 0.002592902576578621
-0.8657997834128609 0.5003823564316559 0.002869218385939253
-0.838045701767463 0.5455907422283127 0.003184924463640596
-0.8079773965701269 0.5892016456868204 0.003734615335193653
-0.7796186114678579 0.6262293215501694 0.005626498355395759
-0.9251811184106524 0.379507319127338 -0.003754046509338547
-0.9364902212358269 0.3506933486364681 -0.0004906646634999857
-0.9484374526555194 0.3169642874481323 0.0001971872378440893
-0.959155433191023 0.2828793848976164 0.0003295149258253774
-0.968204575521915 0.2501595133684525 0.0003432341574229691
-0.9755818041256349 0.2196361476282869 0.0003257514025049739
-0.981457050169087 0.191681948918148 0.0002985503878370702
-0.9860583154761199 0.1663998992196795 0.0002683655656065885
-0.9896159761901541 0.1437364363997701 0.0002377399906930437
-0.9923380687709956 0.1235520699922266 0.0002080107838550116
-0.9944017746197202 0.1056649337976941 0.0001799963317860515
-0.9959528363797246 0.08987727162792208 0.0001541165207690461
-0.9971085034420011 0.07599088972765965 0.0001305452082952072
-0.9979617003707698 0.06381561440142809 0.0001093235998205207
-0.9985852830841966 0.0531735294496856 9.040750994802972e-05
-0.9990358955485539 0.04390072863103936 7.369642259665805e-05
-0.9993572651800275 0.03584763652519615 5.90546620316446e-05
-0.9995829266002916 0.0288785509145892 4.632784479758629e-05
-0.9997384284619483 0.02287079811987383 3.535241757869712e-05
-0.9998430991924863 0.0177137326118515 2.596380576663922e-05
-0.999911448374644 0.01330770774067531 1.800028040396815e-05
-0.999954272575786 0.009563086822688843 1.130718925563632e-05
-0.9999795240972335 0.006399324444447498 5.738018015523253e-06
-0.9999929907183698 0.003744130445407333 1.156610636582787e-06
-0.9999988253904124 0.001532713680281789 -2.563138943873498e-06
-0.9999999570898517 -0.0002928986941833754 -5.536148044760621e-06
-0.999998407788837 -0.00178447692613396 -7.867079032171018e-06
-0.9999955354337722 -0.002988146482986525 -9.649841626841338e-06
-0.9999922188010222 -0.003944897602580034 -1.096874297961046e-05
-0.999988996885304 -0.004691051774420946 -1.189842415832397e-05
-0.9999861729034435 -0.005258692380164182 -1.250497853394187e-05
-0.9999838909460922 -0.005676062304817055 -1.284622756949536e-05
-0.9999821916453518 -0.005967932964536336 -1.297264135297084e-05
-0.9999810518993754 -0.006155946319391408 -1.292791465412029e-05
-0.9999804126113047 -0.006258932111224014 -1.274957032064438e-05
-0.9999801975356311 -0.006293201180891104 -1.246982667256573e-05
-0.9999803256228168 -0.006272815993815335 -1.211579659193001e-05
-0.9999807186936107 -0.006209839278895941 -1.17106549803103e-05
-0.999981305834757 -0.006114560812134087 -1.127337172420796e-05
-0.9999820255460558 -0.005995704106308184 -1.082019784026602e-05
-0.9999828264120814 -0.005860612040934641 -1.036389125645764e-05
-0.9999836668391355 -0.005715413951590217 -9.915544164532754e-06
-0.9999845142621046 -0.005565172598380655 -9.48327769349678e-06
-0.9999853440756107 -0.005414014373516581 -9.074431939047568e-06
-0.9999861384893938 -0.005265240117031999 -8.693719640964098e-06
-0.999986885402645 -0.005121421000510033 -8.34579519695139e-06
-0.9999875773918974 -0.004984475635103164 -8.032868635824357e-06
-0.9999882108262121 -0.004855733560366742 -7.757661492104316e-06
-0.9999887851542507 -0.004735980275239022 -7.520491271090555e-06
-0.9999893023393009 -0.004625489524037955 -7.322611302453791e-06
-0.9999897664684986 -0.00452403657945051 -7.162782930359981e-06
-0.9999901834945377 -0.00443089889130514 -7.040984061682725e-06
-0.9999905611298971 -0.004344836331538982 -6.9544915430202e-06
-0.9999909088414681 -0.004264057548570795 -6.901929495624486e-06
-0.999991237955945 -0.004186163400666993 -6.878887785732039e-06
-0.99999156180535 -0.004108073846871599 -6.882266547467477e-06
-0.9999918958968045 -0.004025927598522021 -6.905457916327712e-06
-0.9999922579879426 -0.003934960733140714 -6.942927152744652e-06
-0.9999926679810073 -0.003829351829816124 -6.984983087016573e-06
-0.9999931474055871 -0.003702038972141516 -7.022518336031691e-06
-0.9999937182342701 -0.003544494663222882 -7.041388105338343e-06
-0.9999944005532655 -0.003346462719524937 -7.027210881591154e-06
-0.9999952084669816 -0.00309564123322586 -6.959363429505954e-06
-0.9999961432318106 -0.00277731435916437 -6.815717061335645e-06
-0.9999971822378533 -0.002373915170799352 -6.56623614866882e-06
-0.9999982617608615 -0.001864520606885906 -6.177490770479738e-06
-0.9999992505780243 -0.001224259761911593 -5.605813358418268e-06
-0.9999999102550181 -0.0004236353413067411 -4.801382364657548e-06
-0.9999998362521338 0.0005722604376776125 -3.700842563056564e-06
-0.9999983716433545 0.001804634495642711 -2.230693158882699e-06
-0.9999944821386946 0.003322001215281675 -2.99210224112139e-07
-0.9999865769531795 0.005181303756486254 2.201200770840736e-06
-0.9999722546673253 0.007449152055985887 5.403016503895118e-06
-0.9999479464137084 0.01020315507401324 9.462680727241313e-06
-0.999908420243679 0.01353332603173323 1.45708216829905e-05
-0.9998461006819497 0.01754350341482235 2.095314287254704e-05
-0.9997501463836037 0.0223527173246186 2.888197553640924e-05
-0.999605218040287 0.02809638002599636 3.867899343042368e-05
-0.9993898598239414 0.03492714571497694 5.072757630752165e-05
-0.9990744150498236 0.04301521714132603 6.547623090524437e-05
-0.9986184051153317 0.05254782584558296 8.344946365530835e-05
-0.9979673288810066 0.06372754042748205 0.0001052481456168432
-0.9970488956518527 0.07676901961879529 0.0001315529912888867
-0.9957687994749014 0.09189380493959566 0.0001631135702222293
-0.9940062793642217 0.1093228077326428 0.0002007335254232761
-0.9916098856021504 0.129266293501383 0.0002452356093351297
-0.9883940603069608 0.1519114646548947 0.0002974160793642299
-0.984137292077044 0.1774081796196157 0.0003579766989907681
-0.9785826404827149 0.2058539118733952 0.0004274485901353876
-0.9714412654331759 0.2372796065137478 0.000506108950879547
-0.9623991944059677 0.2716384322613033 0.0005939068657305874
-0.9511270095478102 0.3087991824240204 0.0006903932907483761
-0.9372917317096716 0.3485449441153328 0.0007947328632888374
-0.9205704840892744 0.3905754256843766 0.0009059112021805823
-0.9006677549840809 0.4345072479595251 0.00102303595965479
-0.8773450831412909 0.4798586161477871 0.00114612238950077
-0.8504911750640357 0.5259877556697599 0.001281414719899675
-0.8203231672324687 0.5718983564054887 0.001473513621108669
-0.7880711722634115 0.6155808685906959 0.002005410804921411
-0.7588681606990557 0.6512296426932698 0.004366595335926624
-0.8997097142821123 0.4364706708203723 -0.00397285036385089
-0.915658524808479 0.4019563579305165 -0.0007431452039058249
-0.9323856156933854 0.3614651619151902 -1.922736424254084e-05
-0.9470166531875182 0.3211844272797926 0.0001491927036296415
-0.9590905930917289 0.2830992713917797 0.0001917821641530169
-0.9687714504489038 0.24795531398351 0.00019764226644861
-0.9763926633615018 0.2160030807384665 0.0001898560613087776
-0.9823127759635839 0.1872473742352111 0.0001761270455382402
-0.9868628138376266 0.1615603949048507 0.0001595702666761673
-0.9903282200608333 0.1387443563337292 0.0001419037725809904
-0.9929457914069721 0.1185691354789147 0.0001242536273561068
-0.9949071642760096 0.1007954510851462 0.0001072977682008195
-0.9963648373431346 0.0851886292173912 9.142346868800615e-05
-0.997438720177136 0.07152617413115456 7.684761628419229e-05
-0.9982222499619848 0.05960147335834476 6.367375442798598e-05
-0.9987877054772408 0.04922516319320556 5.192408386790196e-05
-0.9991906412604055 0.04022512510601202 4.156711066815838e-05
-0.9994734981627836 0.03244573025376663 3.253532163462282e-05
-0.9996684979543558 0.0257467198998416 2.474026976743225e-05
-0.9997999408598219 0.0200019481498287 1.808057698733418e-05
-0.9998860168064766 0.01509812040836704 1.245039551653128e-05
-0.9999402264652043 0.01093359212560445 7.74252337019099e-06
-0.9999724917191141 0.007417262986952457 3.853324692916389e-06
-0.9999900203493286 0.00446757219101591 6.832931979814884e-07
-0.9999979767377204 0.002011595636712104 -1.859987716316758e-06
-0.9999999998682445 -1.576677092156958e-05 -3.862539904915519e-06
-0.9999986013213873 -0.001672520877261719 -5.402193421019282e-06
-0.9999954691975453 -0.003010239439109484 -6.549807072024844e-06
-0.9999916985072328 -0.004074661007717338 -7.368247015196641e-06
-0.9999879643107965 -0.00490623796018157 -7.913690672346684e-06
-0.9999846505142378 -0.005540637878353944 -8.235203665106044e-06
-0.9999819445234239 -0.006009206020472574 -8.375838409523773e-06
-0.9999799058245111 -0.006339390909097699 -8.372740913041591e-06
-0.999978514817586 -0.006555138062805972 -8.257842171847758e-06
-0.9999777068670688 -0.00667725272390894 -8.058483922294692e-06
-0.9999773954133748 -0.006723734191708249 -7.797556177007441e-06
-0.9999774871116891 -0.006710082981682928 -7.494662000456563e-06
-0.999977891262488 -0.006649581556848726 -7.165594478159992e-06
-0.9999785252336264 -0.006553550565356499 -6.82407629819422e-06
-0.9999793171540359 -0.006431580066404672 -6.480500782730262e-06
-0.9999802067968195 -0.006291738776927829 -6.144287073309657e-06
-0.999981145343279 -0.006140759240528008 -5.821835490465312e-06
-0.9999820944776874 -0.005984203668964919 -5.519536404593078e-06
-0.9999830251693903 -0.005826606697434977 -5.240911650006683e-06
-0.9999839163279867 -0.005671601223542822 -4.990306692050595e-06
-0.9999847535085324 -0.005522022069327942 -4.769208238604608e-06
-0.9999855277118672 -0.005379994966152476 -4.580636508219203e-06
-0.9999862343718163 -0.005247003649424123 -4.424645241064715e-06
-0.9999868725029161 -0.005123944117251632 -4.303415318971593e-06
-0.9999874440661182 -0.00501115678632364 -4.215957622586527e-06
-0.99998795349457 -0.004908446638561967 -4.163892085524143e-06
-0.9999884074252609 -0.004815080259541078 -4.145386700703429e-06
-0.9999888145636063 -0.004729770644984241 -4.161587991956155e-06
-0.9999891857226429 -0.00465063652016862 -4.209840881751244e-06
-0.9999895339471059 -0.00457514784888706 -4.290718187175082e-06
-0.9999898747495817 -0.004500042105408545 -4.400575706737167e-06
-0.9999902263352354 -0.004421223066141046 -4.539109799296194e-06
-0.9999906097928656 -0.004333624809524253 -4.701309475201156e-06
-0.9999910490461559 -0.004231052315977361 -4.885452018780857e-06
-0.9999915704191042 -0.004105979162227496 -5.084517995037302e-06
-0.9999922014183549 -0.003949313160527682 -5.294514552669264e-06
-0.9999929683042577 -0.00375010822905781 -5.505418308113291e-06
-0.9999938916419567 -0.003495231919881536 -5.709692599361482e-06
-0.9999949788001572 -0.003168965090935813 -5.892814551399045e-06
-0.9999962117325057 -0.002752541395398651 -6.041822921636961e-06
-0.9999975277767523 -0.002223601299434924 -6.135464767056243e-06
-0.9999987900860005 -0.001555566996472484 -6.152569629183718e-06
-0.9999997430000753 -0.0007169121544605742 -6.06181111685518e-06
-0.9999999456425844 0.0003296677771811495 -5.829643022523385e-06
-0.9999986744527992 0.001628208641486308 -5.409602705635264e-06
-0.9999947817627146 0.003230545586028984 -4.749456164151849e-06
-0.9999864928323355 0.005197512731815246 -3.779865416201314e-06
-0.9999711176386157 0.007600255437785368 -2.420270097969887e-06
-0.999944645869409 0.01052165370939686 -5.666074286508861e-07
-0.9999011840630898 0.01405781297366813 1.904664470287324e-06
-0.9998321823634113 0.01831958197922706 5.150203833084149e-06
-0.9997253859941522 0.02343400331285642 9.358216381483827e-06
-0.9995634337927997 0.02954558522655653 1.476370755216775e-05
-0.9993220164650004 0.03681720982943095 2.164949543459932e-05
-0.9989675035456209 0.04543045165914348 3.036240649978392e-05
-0.9984539585079689 0.05558498927597896 4.131532025226991e-05
-0.9977194934172956 0.06749673643981899 5.500098590993144e-05
-0.9966819816740425 0.0813942395000966 7.198961081051998e-05
-0.9952342592590334 0.09751287382092956 9.293172990920349e-05
-0.9932391126074276 0.1160863951339202 0.0001185395314247129
-0.9905245677077439 0.1373355685829834 0.0001495639501268463
-0.9868802379003121 0.1614538979665976 0.0001867437130406992
-0.9820556933459976 0.1885909911008143 0.0002307429826916143
-0.9757618915517767 0.2188347582890122 0.0002820636237751903
-0.9676765390682949 0.2521943684629112 0.000340958061290616
-0.9574537728193154 0.2885863943257709 0.0004073378312800081
-0.9447378347650265 0.3278264670415637 0.0004806979669303808
-0.9291798221687657 0.3696275751751098 0.0005601290823223305
-0.910456853516642 0.4136035570749361 0.0006445615063162414
-0.8882957448234916 0.4592713056744803 0.0007331524642746278
-0.8625123269614424 0.5060353771760753 0.0008263690607362575
-0.8331024277780888 0.5531179581002643 0.0009323396635908907
-0.8004960261994045 0.5993370477705877 0.001102365002125008
-0.7663519484012702 0.642418871826221 0.001638384296084011
-0.7364306093718778 0.6765010387618594 0.004037590158674708
-0.8706552700077435 0.4918776802897823 -0.003968430481386838
-0.8910315586918427 0.4539405767231483 -0.0008451150455005525
-0.9127853423243567 0.4084395961347729 -0.0001230734328404792
-0.9318912910089381 0.3627376704969273 6.437512386102927e-05
-0.9476098822942907 0.3194299534269042 0.0001258248222516215
-0.9601468420357618 0.2794960110350039 0.0001467796787728036
-0.9699644549241636 0.2432466516200676 0.00015053004749561
-0.9775552248243587 0.2106792852238017 0.0001455890962195943
-0.9833660617445988 0.1816347163409802 0.0001357521592923153
-0.9877765977988212 0.1558761612712053 0.0001232409790966954
-0.9910981756697478 0.1331329943246297 0.0001095730597346865
-0.9935805985954826 0.1131264112896735 9.572544924242483e-05
-0.9954213280829869 0.09558437541637303 8.230287876591602e-05
-0.9967747827862784 0.08024978221572408 6.968282689186944e-05
-0.9977607281559987 0.06688442251806984 5.808644374441489e-05
-0.9984714220498585 0.05527039968777394 4.762443063661226e-05
-0.9989775026952384 0.04521003914687294 3.832914146144232e-05
-0.9993327403801288 0.03652496534423286 3.018185427793036e-05
-0.9995778209161376 0.02905476548883334 2.312864630557321e-05
-0.9997433310610819 0.02265550058226957 1.70955651109214e-05
-0.9998520998202808 0.01719820749610368 1.199566417059312e-05
-0.9999210261364172 0.0125674751012146 7.737863828004875e-06
-0.9999625003827504 0.008660127619758954 4.22929084166387e-06
-0.999985505996824 0.005384031423504388 1.380651933056945e-06
-0.9999964701199098 0.002657018426879711 -8.938461277826e-07
-0.9999999176102303 0.0004059216503798121 -2.673128961339914e-06
-0.9999989713924295 -0.001434293497760442 -4.030463913922421e-06
-0.9999957329505701 -0.002921310551261401 -5.03135513392545e-06
-0.9999915696274736 -0.004106171098417602 -5.735121999112128e-06
-0.9999873297366701 -0.005033917734895728 -6.193703450163662e-06
-0.9999835020251351 -0.005744182788145072 -6.45312751464808e-06
-0.9999803325113004 -0.006271726049957959 -6.553076733426752e-06
-0.9999779088990428 -0.006646929462818763 -6.52792716753069e-06
-0.9999762205597172 -0.006896250724347601 -6.407035281849146e-06
-0.9999752002816339 -0.007042640348473273 -6.215118583585538e-06
-0.9999747525877948 -0.007105923676621499 -5.973281844017068e-06
-0.9999747722942282 -0.007103150190733194 -5.698574002453133e-06
-0.9999751560949721 -0.007048912229058297 -5.405800985642809e-06
-0.9999758092776606 -0.006955633214492413 -5.106139931331304e-06
-0.9999766491052396 -0.006833829169778484 -4.809797137334365e-06
-0.9999776060221298 -0.006692341427816099 -4.523597100856547e-06
-0.999978623470462 -0.006538546017150805 -4.254543021512856e-06
-0.999979656925698 -0.006378535781203521 -4.006328259275686e-06
-0.9999806725045318 -0.006217282611126063 -3.783846906609826e-06
-0.9999816454570437 -0.006058773485231735 -3.588601190691176e-06
-0.9999825586566777 -0.005906129927333452 -3.424193611700603e-06
-0.9999834012517942 -0.005761702011067199 -3.290626637393287e-06
-0.9999841674702682 -0.005627148355351876 -3.190787843870765e-06
-0.9999848556743622 -0.005503490907348683 -3.12365909714316e-06
-0.9999854675993155 -0.005391157632531796 -3.09178371228222e-06
-0.9999860078516805 -0.005289999176669566 -3.093421711574524e-06
-0.9999864835729267 -0.005199294341478278 -3.130964646074581e-06
-0.9999869043407965 -0.005117727684909054 -3.202091456338211e-06
-0.9999872821978688 -0.005043355189704236 -3.309073061465432e-06
-0.999987631872846 -0.004973538925338228 -3.44899983699193e-06
-0.9999879710593045 -0.00490486733384194 -3.623894793870168e-06
-0.9999883207895457 -0.004833039399272683 -3.830098192445628e-06
-0.9999887057076013 -0.004752729813301731 -4.069085328866702e-06
-0.9999891541940381 -0.004657410813937815 -4.336105334326681e-06
-0.999989698006598 -0.004539147411233274 -4.631576734891568e-06
-0.9999903711795505 -0.004388339514089082 -4.949084767661697e-06
-0.9999912075338867 -0.004193426637523255 -5.28720362197555e-06
-0.9999922360802564 -0.00394052628882115 -5.636957047983621e-06
-0.999993473002378 -0.003613020442145111 -5.993888002297252e-06
-0.9999949085377777 -0.003191059112783678 -6.345076667841826e-06
-0.9999964860881148 -0.002650993546420382 -6.681241198755565e-06
-0.9999980699368354 -0.001964707061199545 -6.983378787952132e-06
-0.9999993962329903 -0.001098854546597995 -7.234626954462118e-06
-0.9999999998748658 -1.39789714425048e-05 -7.406535769318372e-06
-0.9999991068779626 0.001336483247502664 -7.470335120073363e-06
-0.9999954779295114 0.003007335369134513 -7.382745226982383e-06
-0.9999871835431035 0.005062874596050143 -7.096167607714486e-06
-0.9999712843876085 0.007578281954040839 -6.543785340296625e-06
-0.9999433817258341 0.01064111417108956 -5.648021941348545e-06
-0.9998969920427007 0.01435288421991963 -4.304488150761501e-06
-0.9998226874090897 0.01883065947764194 -2.387885682630771e-06
-0.9997069286907428 0.02420860854430329 2.65761778719717e-07
-0.9995305047761509 0.0306393538942989 3.856529483521818e-06
-0.9992664788945801 0.03829496158728909 8.640319533024503e-06
-0.9988775392024206 0.04736730363895706 1.492952881387482e-05
-0.9983126604451564 0.05806747334511225 2.311338394950295e-05
-0.9975030199045595 0.07062382139444924 3.365900973805412e-05
-0.9963571848120601 0.08527812176901667 4.712679575020119e-05
-0.994755718750699 0.102279303360394 6.416301122584762e-05
-0.9925455496190952 0.1218742163936887 8.549708683864344e-05
-0.9895347057110139 0.1442950230252788 0.0001119086741798367
-0.9854883295156655 0.1697431341719618 0.0001441870381906934
-0.9801271603294384 0.1983701491551342 0.0001830538733960049
-0.9731298169334801 0.2302570453204735 0.000229074870833011
-0.9641400723387689 0.2653937472450237 0.0002825488235860686
-0.9527797780352161 0.3036619446705586 0.000343403637930374
-0.9386672403216786 0.3448240753612971 0.0004110937973400999
-0.921440071328949 0.3885202183943478 0.0004846112967906259
-0.9007817452237156 0.4342717246082943 0.0005627410188558472
-0.8764542866368267 0.4814846498774348 0.000644490756265655
-0.8483499213425492 0.5294354329184663 0.0007302934524639604
-0.8166012595669813 0.5772016078872815 0.0008286893004142775
-0.781862262506401 0.6234504137280884 0.0009920134306641937
-0.7461065323586767 0.6658248518879279 0.001519532865549816
-0.7153467693041554 0.6987589135819934 0.003870443878833135
-0.8400483557660257 0.5424973568634607 -0.003921450108764516
-0.8644043989108622 0.5027963613170074 -0.0009242239599253228
-0.8909567965095704 0.4540880303788779 -0.0002177614169537385
-0.9146307163275468 0.4042903071120585 -1.803872283429073e-05
-0.9342771055097774 0.3565477338285259 6.018317297042714e-05
-0.9500123497961988 0.3122123091109386 9.630327098921161e-05
-0.9623528371684975 0.2718032453371962 0.000112329474494192
-0.971894203517653 0.2354180186375509 0.0001169168777022681
-0.9791923502811758 0.2029342949893293 0.0001143153996460828
-0.9847249412629163 0.1741171403341413 0.0001072222291818038
-0.9888855076316441 0.1486789940507589 9.759180097283756e-05
-0.9919902273506498 0.1263146124336539 8.675564123096297e-05
-0.9942889589655979 0.1067214147467452 7.558809475683456e-05
-0.9959768578291552 0.08961079447848878 6.466604045101657e-05
-0.9972050098727219 0.0747138898042654 5.436046485039298e-05
-0.9980895434066626 0.06178398924595876 4.489024852621489e-05
-0.9987191543751843 0.0505969303560725 3.636838133656545e-05
-0.9991611821060533 0.04095035214905031 2.883231590731392e-05
-0.9994664427428277 0.03266235348253724 2.227058669023826e-05
-0.9996730368143074 0.0255698883387495 1.663741401754427e-05
-0.9998093278945281 0.01952710204406508 1.186811321908928e-05
-0.9998962611184239 0.01440371268872397 7.885260102510253e-06
-0.9999491602081445 0.01008350027486618 4.607906769915217e-06
-0.9999791151121791 0.006462920055809479 1.95322152056521e-06
-0.9999940492513204 0.003449849550660473 -1.577945056854568e-07
-0.9999995368367159 0.0009624568092355859 -1.800943937899411e-06
-0.9999994256010939 -0.001071815379854677 -3.045204607823239e-06
-0.9999963084839946 -0.002717168148341511 -3.95433691868562e-06
-0.9999918784007832 -0.004030274364555443 -4.58463978166405e-06
-0.999987192883922 -0.005061031838021842 -4.986736717107511e-06
-0.9999828695916001 -0.005853246642916186 -5.204392443027028e-06
-0.9999792290928152 -0.006445258342570525 -5.275967872740825e-06
-0.9999763977563272 -0.006870509652347001 -5.234176571122256e-06
-0.999974380684775 -0.007158068735388303 -5.106861236256953e-06
-0.9999731124078094 -0.007333105566881026 -4.91767792212158e-06
-0.9999724912405984 -0.007417327019406089 -4.68594771598282e-06
-0.9999724018176935 -0.007429373011447015 -4.428312933633059e-06
-0.9999727292119165 -0.007385175365952491 -4.157487525607968e-06
-0.9999733671699664 -0.007298283062899451 -3.884955209511791e-06
-0.9999742223615397 -0.00718015315577549 -3.618493916324799e-06
-0.9999752159801958 -0.007040412916179298 -3.36599138728673e-06
-0.9999762837117675 -0.006887089675277958 -3.131659865895503e-06
-0.9999773747090037 -0.006726816598971218 -2.921036471187984e-06
-0.9999784500994774 -0.006565007933098049 -2.735838661404719e-06
-0.9999794812760517 -0.006406014378738118 -2.580199432628138e-06
-0.9999804482422254 -0.006253249335717859 -2.454144053820963e-06
-0.9999813380556656 -0.006109299045341331 -2.361086687987313e-06
-0.999982143525444 -0.005976004097091776 -2.29993613360974e-06
-0.9999828621018041 -0.005854527949661167 -2.273853536665389e-06
-0.9999834950702352 -0.005745396584505423 -2.281020324861703e-06
-0.9999840469413833 -0.005648527005230058 -2.324628200627376e-06
-0.9999845251376094 -0.005563225641473453 -2.402366578911523e-06
-0.9999849398449375 -0.005488176106681687 -2.517587134544034e-06
-0.9999853041316141 -0.005421394072229143 -2.667590767087667e-06
-0.9999856341795571 -0.005360170365982471 -2.855880683224462e-06
-0.9999859497186588 -0.005300976871236085 -3.079349788493526e-06
-0.9999862744686622 -0.005239357128474558 -3.341508971252324e-06
-0.9999866366252157 -0.005169773471669112 -3.638694223285669e-06
-0.9999870690951824 -0.005085432787150243 -3.974130274554006e-06
-0.9999876093739046 -0.004978059842790292 -4.343291393568002e-06
-0.9999882985393327 -0.004837640112809616 -4.748634233686824e-06
-0.9999891789185442 -0.004652098337186403 -5.184255037707493e-06
-0.9999902894054979 -0.00440693348865909 -5.651097303935088e-06
-0.9999916572557958 -0.004084774301498824 -6.141047403350117e-06
-0.9999932843036375 -0.003664874263805878 -6.652388463415241e-06
-0.999995124933154 -0.003122508361339395 -7.173460067098924e-06
-0.9999970516722886 -0.002428289000343595 -7.698082371760662e-06