# OOMMF: rectangular mesh v1.0
# Segment count: 1
# Begin: Segment
# Begin: Header
# Title: 
# Desc: time = 2.0771574540891234e-10
# Desc: stepsize = 3.1393459805403957e-13
# Desc: step = 460
# meshunit: m
# valueunit: (none)
# valuemultiplier: 800000.0000000002
# xmin: 0
# ymin: 0
# zmin: 0
# xmax: 4e-07
# ymax: 1e-07
# zmax: 4e-09
# ValueRangeMaxMag: 1
# ValueRangeMinMag: 0.9999999999999996
# meshtype: rectangular
# xbase: 2e-09
# ybase: 2e-09
# zbase: 1e-09
# xstepsize: 4e-09
# ystepsize: 4e-09
# zstepsize: 2e-09
# xnodes: 100
# ynodes: 25
# znodes: 2
# End: Header
# Begin: Data Text
-0.943933418612026 0.3301290562985876 -0.002123067313466402
-0.9508000309422924 0.3098042268342696 0.0008013711721439535
-0.959124226224799 0.2829823985221665 0.001296454905479563
-0.9671734502574025 0.2541138502054899 0.001291607886712351
-0.9742317812003953 0.2255460582116365 0.001188328362696729
-0.9801033558124415 0.1984849488893876 0.001066297129148609
-0.984834184006345 0.1734956392014722 0.000945087630302964
-0.9885662129788382 0.150785120059629 0.0008307377932966677
-0.9914660520921116 0.130363114030076 0.0007252925367146449
-0.9936928259145248 0.1121346139158263 0.0006293551892473295
-0.9953857217868002 0.09595295792235141 0.0005428894194363257
-0.9966609471106448 0.08165010574715791 0.0004655491277234455
-0.9976128510384868 0.06905390632831129 0.0003968169127872651
-0.9983166815382484 0.0579973313851678 0.0003360277643410298
-0.9988317207654591 0.04832301508295885 0.0002824995639295942
-0.9992042329032036 0.03988540425053449 0.0002355336322117617
-0.9994700481470601 0.03255126818820665 0.0001944125831166073
-0.9996567272898401 0.02619928338277888 0.0001585383062808319
-0.9997853206743875 0.02071946768803123 0.0001273685055551805
-0.9998717888455722 0.01601236430342608 0.0001003003976482138
-0.9999281355162382 0.01198824003712501 7.683639659444191e-05
-0.9999633068722916 0.008566312337293802 5.658596155786717e-05
-0.9999839026925229 0.005673871780714759 3.917711391734077e-05
-0.9999947328060818 0.003245576586519517 2.434570829929296e-05
-0.9999992522497489 0.001222848966084755 1.184687560321838e-05
-0.9999999001500962 -0.0004468755304938689 1.434224090250614e-06
-0.999998360818265 -0.001810610339900032 -7.139999578073521e-06
-0.9999957650880312 -0.002910258611772718 -1.417093017205944e-05
-0.9999928435857713 -0.003783170713782867 -1.991464112667183e-05
-0.9999900427034017 -0.00446249839739662 -2.453775316034499e-05
-0.9999876109524747 -0.004977664619403659 -2.822230148670589e-05
-0.9999856631262518 -0.005354677785417326 -3.110891083797877e-05
-0.999984227599349 -0.005616354792874236 -3.333726847552736e-05
-0.9999832797939194 -0.005782638210154593 -3.504177097883887e-05
-0.9999827656364144 -0.005870870201429664 -3.623845702095683e-05
-0.9999826174155565 -0.005896058061718475 -3.696032505322091e-05
-0.9999827638421334 -0.005871169727768965 -3.721122625236674e-05
-0.9999831368970367 -0.005807284349814801 -3.701408823048616e-05
-0.9999836754253296 -0.005713803927880541 -3.643518255892929e-05
-0.9999843265904063 -0.005598688579956076 -3.54924751019941e-05
-0.9999850465019071 -0.005468601460188426 -3.421473188207123e-05
-0.9999857992156991 -0.005329193288833248 -3.264704119937831e-05
-0.999986556736593 -0.005185112572923399 -3.088200563830365e-05
-0.9999872980269798 -0.005040133152153643 -2.902598889749098e-05
-0.9999880076458895 -0.004897328611843524 -2.714538313878502e-05
-0.999988675097325 -0.004759100390648827 -2.530943617787309e-05
-0.999989293610724 -0.004627321719615204 -2.361414550091902e-05
-0.9999898600489606 -0.004503255389885045 -2.213940141054316e-05
-0.9999903739174011 -0.00438766839286175 -2.094302511670686e-05
-0.9999908368300634 -0.004280870621004893 -2.00657714513174e-05
-0.9999912524774004 -0.004182653159491151 -1.952502606243963e-05
-0.99999162608684 -0.004092356597104766 -1.933078048604761e-05
-0.9999919647174096 -0.004008755647878949 -1.946202678727297e-05
-0.9999922767833673 -0.003930137184662402 -1.988282246985341e-05
-0.9999925723086049 -0.003854206300979407 -2.05282452002998e-05
-0.9999928632162214 -0.003777970789220699 -2.129176627681733e-05
-0.9999931631009255 -0.00369773764482049 -2.208427999960466e-05
-0.9999934874752119 -0.003608945322687377 -2.282150098128989e-05
-0.9999938532443003 -0.0035061270755963 -2.337832509297178e-05
-0.9999942786491562 -0.00338261897612377 -2.361812785556152e-05
-0.9999947820890749 -0.003230363097577963 -2.342820974074567e-05
-0.9999953796014441 -0.003039779322000842 -2.274723010741279e-05
-0.9999960814968724 -0.002799379937925211 -2.151426318234441e-05
-0.9999968861540252 -0.002495455417425234 -1.960899617650918e-05
-0.999997770500057 -0.00211156509132796 -1.696408102555384e-05
-0.9999986745594851 -0.001628095955772114 -1.352150698740276e-05
-0.9999994779447486 -0.001021775421720291 -9.231306571726127e-06
-0.9999999648907891 -0.0002649566672478566 -4.047753178959068e-06
-0.9999997721335132 0.0006750763509353794 2.200465854484729e-06
-0.9999983126665237 0.001837000310613678 9.693478972889198e-06
-0.999994665103474 0.003266407234209651 1.866469447415799e-05
-0.9999874157712532 0.005016715599526795 2.938917650633356e-05
-0.9999744350381246 0.007150348995394468 4.218325686727615e-05
-0.9999525632093419 0.009740021642432595 5.75280043548395e-05
-0.999917175229631 0.01287000041673499 7.596096344854794e-05
-0.999861581361209 0.01663756282017177 9.808805694377221e-05
-0.9997762168512353 0.02115421216105821 0.0001246052832564377
-0.9996475589869517 0.02654681542378784 0.000156212305089541
-0.99945670214367 0.03295850465367593 0.0001936778056665391
-0.9991775268759304 0.04054889864400631 0.0002379177522408023
-0.9987743873638872 0.04949382856846202 0.0002899647001170365
-0.9981992791205158 0.05998396401580228 0.0003510330939012883
-0.99738850636552 0.07222180408901098 0.0004223554016435018
-0.9962589248494873 0.08641700922117537 0.0005051485033440911
-0.994703955755427 0.1027797618868254 0.0006007919709564742
-0.9925897142061129 0.1215119510306926 0.0007106398110349275
-0.9897517268982386 0.1427964299641614 0.0008358776492072674
-0.9859928741006121 0.166784581322348 0.0009775765663626278
-0.9810831422357663 0.1935835127941862 0.001136483637218459
-0.9747616683713927 0.2232441854924538 0.001312828103628706
-0.9667413299281143 0.255751699622582 0.001506369470311478
-0.9567155503118691 0.2910196038119105 0.001716388247313856
-0.9443667963608798 0.3288884058663204 0.001941756369433143
-0.9293769853734425 0.3691255373625202 0.002180991747354178
-0.9114420105610046 0.4114213713922667 0.002432395161071583
-0.8902987590422567 0.455368925554097 0.002694677629058052
-0.865789257166639 0.5003999805867867 0.002970118445855169
-0.838033148080814 0.5456094257309344 0.003285920163391484
-0.8079632282178274 0.5892204131254184 0.003837525783348143
-0.779603400389652 0.6262472901349589 0.00573321022742363
-0.9251351823253694 0.379621808607398 -0.003489534847679494
-0.9364516252614021 0.3507966448768095 -0.0002597853947383176
-0.9484074091638807 0.3170539862019646 0.0003950651835279581
-0.9591330891368519 0.2829548860081491 0.0004998068769824674
-0.9681886190344388 0.2502210157386915 0.0004911770388134342
-0.9755709148850166 0.2196842794961273 0.0004553819043854052
-0.9814499891637454 0.1917178876111181 0.0004127231691046221
-0.9860539901047926 0.1664253353342189 0.0003692659070927241
-0.9896135445293216 0.1437530013337225 0.0003272486190669037
-0.9923369217050027 0.1235611227666221 0.0002876833162654829
-0.9944014722889125 0.1056676339767275 0.0002510764884310371
-0.9959530724034927 0.08987452469813212 0.0002176702267220311
-0.9971090630787205 0.07598342686947983 0.0001875298533291612
-0.9979624303428111 0.06380408959245955 0.0001605476467337475
-0.998586077979579 0.05315850089883955 0.000136556031166472
-0.9990366816868177 0.04388274541087764 0.0001153230061236026
-0.9993579919515334 0.03582728848244322 9.655358129900044e-05
-0.999583565509133 0.02885635388573341 8.002793287887181e-05
-0.9997389675692009 0.02284715359708653 6.554524038835664e-05
-0.9998435378707329 0.01768889450677606 5.281348284024374e-05
-0.9999117918775483 0.01328181963340779 4.161076366984349e-05
-0.9999545280622574 0.009536288436442256 3.179063558674023e-05
-0.9999796997960895 0.006371770344980562 2.320329807007826e-05
-0.9999930954368508 0.003716023345435857 1.578356917933294e-05
-0.9999988683702381 0.00150438315801201 9.463426850849084e-06
-0.9999999484461235 -0.000321077062127331 4.155718161539922e-06
-0.9999983581693371 -0.001812086799465952 -2.463769723614235e-07
-0.9999954557933975 -0.003014693555229668 -3.91439135290251e-06
-0.9999921199622506 -0.003969882177738714 -6.992744448531496e-06
-0.999988889070899 -0.004713983833433787 -9.548124361439733e-06
-0.9999860648664828 -0.005279198477431102 -1.16739955503523e-05
-0.9999837892175045 -0.00569395485068145 -1.342979386206014e-05
-0.9999821005658796 -0.005983170256448535 -1.488398353865881e-05
-0.9999809738601459 -0.006168602610496504 -1.611046863889982e-05
-0.9999803484983156 -0.006269156700610385 -1.707189793433913e-05
-0.9999801472191362 -0.006301178652907627 -1.775325977989102e-05
-0.9999802880894622 -0.00627878206946494 -1.81174041479988e-05
-0.9999806926206146 -0.006214020959604614 -1.815238121052094e-05
-0.9999812900768879 -0.006117121534498975 -1.789678278365675e-05
-0.9999820192623944 -0.005996736692921198 -1.73476115656346e-05
-0.9999828292847091 -0.005860107767341798 -1.651372051991697e-05
-0.9999836784591511 -0.005713368309639295 -1.54228188291483e-05
-0.9999845342620066 -0.005561567809560528 -1.415262500028575e-05
-0.9999853722094946 -0.005408807932369203 -1.279800334402492e-05
-0.9999861743148832 -0.005258426452257999 -1.141620185916295e-05
-0.9999869282914514 -0.005113036758818613 -1.006628060177933e-05
-0.9999876261696271 -0.004974678837894844 -8.837074982048548e-06
-0.9999882641485998 -0.004844739846247193 -7.803330021727632e-06
-0.9999888414866142 -0.004724071653335761 -7.019446896369427e-06
-0.9999893598915554 -0.004613031660947911 -6.524703479096718e-06
-0.9999898234571188 -0.00451142350701119 -6.335635241116844e-06
-0.9999902380777375 -0.004418563956373931 -6.464765505244018e-06
-0.9999906117685239 -0.004333165964470729 -6.894726321833277e-06
-0.9999909541537285 -0.00425341662877888 -7.595861273467882e-06
-0.9999912767598476 -0.004176880622533444 -8.51319814133643e-06
-0.9999915933531018 -0.004100381921111127 -9.551190211452624e-06
-0.9999919197381532 -0.004019993194725474 -1.063564622077307e-05
-0.9999922740689771 -0.00393086065260387 -1.169981754590102e-05
-0.9999926763120142 -0.003827161162314188 -1.264013200255064e-05
-0.9999931482428279 -0.003701795419657814 -1.334422805658251e-05
-0.999993712210969 -0.003546174020070784 -1.372388538849386e-05
-0.9999943883960092 -0.003350072752729244 -1.374926500824884e-05
-0.9999951910919785 -0.003101227730496671 -1.339705113895668e-05
-0.9999961218025298 -0.00278499935115964 -1.259021601879044e-05
-0.9999971586093631 -0.002383829948369365 -1.131269272790416e-05
-0.9999982388217531 -0.001876768995465771 -9.56709732931899e-06
-0.9999992324698439 -0.001238953294868882 -7.379398366945319e-06
-0.9999999028154154 -0.0004408470894321107 -4.796133935333959e-06
-0.9999998473705263 0.0005524996337674972 -1.754492700059849e-06
-0.9999984115215215 0.001782400404167601 1.797878253022519e-06
-0.9999945630370066 0.003297553800225842 5.946485465124273e-06
-0.9999867127502011 0.005155017608486061 1.079364263079052e-05
-0.9999724604498178 0.007421460185568152 1.645147834547169e-05
-0.9999482379237452 0.01017452389509138 2.316689979004243e-05
-0.9999088140726886 0.01350416845801164 3.120908079314724e-05
-0.9998466135241181 0.01751421575550861 4.087568938017242e-05
-0.999750795145272 0.02232363878981781 5.251264080841862e-05
-0.9996060207892539 0.02806775356728217 6.641957549924215e-05
-0.9993908356366604 0.03489915142831462 8.291586758829374e-05
-0.9990755877951011 0.04298789807938714 0.0001024235764746654
-0.998619803509765 0.05252116053523834 0.0001254358389410468
-0.9979689775827216 0.06370162084709992 0.0001525907903997546
-0.997050806935091 0.07674408343418106 0.000184520813755448
-0.995770965600691 0.0918702065921564 0.000221827369196157
-0.9940086649602502 0.1093009771718256 0.0002652795216265691
-0.9916124246034974 0.1292466623781415 0.000315651838855053
-0.9883966454627323 0.1518944754012584 0.0003736048632232163
-0.9841397776817957 0.17739420675667 0.0004397653885292953
-0.9785848412112275 0.2058432505593312 0.0005145393712113956
-0.9714429277798662 0.2372725869957498 0.000597935469286446
-0.962400011023448 0.2716353128678736 0.0006896268841243342
-0.9511266560993097 0.3088000350018469 0.0007889487963981586
-0.9372898323369322 0.3485498087594801 0.0008949924775102253
-0.9205666205847249 0.3905842848331973 0.001006730628501047
-0.9006615992732248 0.4345197599293295 0.001123310088389048
-0.8773364889404364 0.4798740820757818 0.001245201025090927
-0.8504801810029252 0.5260052838970624 0.001379504839410099
-0.8203100270067926 0.5719169424875759 0.001571778539557466
-0.788056291610517 0.6155995821727223 0.002106105849416884
-0.7588520535932141 0.6512476942394457 0.004472304234605822
-0.8996574378634596 0.436580696192866 -0.003713517026653812
-0.915614208114079 0.402057653021336 -0.0005153121407550817
-0.9323507930612587 0.3615549296244429 0.0001776015362839093
-0.9469905571480021 0.3212612368375543 0.0003199658123460502
-0.9590718468186079 0.2831626319992368 0.0003412905050960574
-0.9687586031575983 0.2480053632666639 0.0003295437885330385
-0.9763843173365938 0.216040669316397 0.000306692804546385
-0.9823076715277875 0.1872740242277574 0.0002798342315969189
-0.9868599620919332 0.1615776958280034 0.000251854761385485
-0.9903268985190398 0.1387536802894666 0.0002242226294998789
-0.9929454762544673 0.118571674776908 0.0001978039122635864
-0.9949074889908023 0.1007921543451379 0.0001731256260914654
-0.9963655449084826 0.08518026928312239 0.0001504794907641159
-0.9974396271382157 0.07151344858220174 0.0001299471358835691
-0.9982232299527083 0.05958498760037083 0.0001115143299160011
-0.9987886708320372 0.04920550760781413 9.507170630580609e-05
-0.9991915323246015 0.04020292604288919 8.042639159340247e-05
-0.9994742813105736 0.03242154299758124 6.744159195541293e-05
-0.9996691592833872 0.02572098059442041 5.599023860822054e-05
-0.9998004800036894 0.01997493634882043 4.585032680041973e-05
-0.9998864404647003 0.01506999722778444 3.685627931842021e-05
-0.9999405436426774 0.01090451025792297 2.890711202796175e-05
-0.9999727126111236 0.007387391531486895 2.189774409871039e-05
-0.9999901557424336 0.004437135170011747 1.58020988820227e-05
-0.9999980378659041 0.001980947321548273 1.058541133346997e-05
-0.9999999989125145 -4.62239597373008e-05 6.190010196122512e-06
-0.9999985510110276 -0.001702342336629737 2.532604199845864e-06
-0.9999953825243487 -0.003038902711220744 -5.410122203813733e-07
-0.9999915882386038 -0.004101638946621233 -3.160026563217987e-06
-0.9999878424615438 -0.004931014114912257 -5.376316353005067e-06
-0.9999845273958554 -0.005562815480601152 -7.267492296982559e-06
-0.9999818278994401 -0.006028581270638857 -8.874527976365686e-06
-0.9999798009157432 -0.006355914997360629 -1.024970269303879e-05
-0.9999784245785649 -0.006568884697743034 -1.145419118483296e-05
-0.999977632494978 -0.00668837461711177 -1.24386326765729e-05
-0.9999773369135017 -0.006732420502279835 -1.317425984509803e-05
-0.9999774434464279 -0.00671657748006163 -1.361250441073006e-05
-0.9999778609800937 -0.006654123615335932 -1.373272379219808e-05
-0.9999785070251924 -0.006556317833389202 -1.356961039630984e-05
-0.9999793100276153 -0.006432677865992677 -1.31212140581894e-05
-0.9999802103537599 -0.006291164220595722 -1.239352202441173e-05
-0.9999811591037302 -0.006138510188758492 -1.141150746653995e-05
-0.9999821180039516 -0.005980264812844416 -1.02517565358781e-05
-0.9999830581507714 -0.005820938947870487 -9.010847176138706e-06
-0.999983958259019 -0.005664200260413542 -7.748157783180084e-06
-0.9999848036694373 -0.005512929139203743 -6.519404184268754e-06
-0.9999855847690707 -0.005369378434319057 -5.411850969071535e-06
-0.9999862967673361 -0.00523509859586856 -4.498943605656768e-06
-0.9999869384517219 -0.005111057743163242 -3.833737124872734e-06
-0.9999875114863819 -0.004997685397944974 -3.45482844669997e-06
-0.999988020300868 -0.004894818009870851 -3.376505441336942e-06
-0.9999884714625228 -0.004801763113776045 -3.611924206755084e-06
-0.9999888740275987 -0.00471718176935253 -4.143639516625988e-06
-0.9999892389978923 -0.004639166301828019 -4.943660641827262e-06
-0.9999895796686031 -0.004565141692293122 -5.961473199951147e-06
-0.9999899120350235 -0.004491745508950217 -7.1041185581909e-06
-0.9999902546534147 -0.004414807952849148 -8.302872231558494e-06
-0.9999906290561544 -0.00432916963014331 -9.496826998474703e-06
-0.9999910592351587 -0.004228633065138081 -1.058987533174407e-05
-0.9999915717606928 -0.004105639521500509 -1.147598348043488e-05
-0.9999921945562953 -0.003951035414758073 -1.206796124859353e-05
-0.9999929539828839 -0.003753908930975081 -1.234192556096865e-05
-0.999993870827845 -0.003501164934112065 -1.228197425712764e-05
-0.9999949527234376 -0.003177166658993694 -1.181822212655924e-05
-0.999996182415358 -0.002763156698381947 -1.094392678237429e-05
-0.9999974984348123 -0.002236745525815907 -9.673138203484532e-06
-0.9999987653829927 -0.001571358537176962 -8.052165816222029e-06
-0.9999997295542737 -0.0007354274267102626 -6.154590433283384e-06
-0.9999999524374438 0.0003083983215492231 -3.947771344474274e-06
-0.9999987131700466 0.001604261902700602 -1.413465362272345e-06
-0.9999948665568298 0.003204193774536177 1.497632193449382e-06
-0.9999866398357116 0.005169151438879022 4.846098618115908e-06
-0.9999713444588958 0.007570349101864268 8.69159509492963e-06
-0.9999449709669304 0.01049070364822781 1.322533920608484e-05
-0.9999016269099906 0.01402626659794401 1.865682786208172e-05
-0.9998327626323239 0.01828786841483818 2.521618956632486e-05
-0.9997261235511304 0.02340249535456647 3.317542547509611e-05
-0.9995643498014837 0.02951455198408277 4.274477646335209e-05
-0.9993231332626594 0.03678685083935258 5.414262335969939e-05
-0.998968848823744 0.04540082045970692 6.76856592984483e-05
-0.9984555654314369 0.05555606937568214 8.375269307023616e-05
-0.9977213909515948 0.06746862571630174 0.0001028667506712929
-0.9966841852236423 0.08136718724928164 0.0001255556610300403
-0.9952367615859136 0.0974872565322966 0.0001523213347178649
-0.9932418742919621 0.1160626785617101 0.0001838425165710647
-0.9905275141929809 0.13731421945652 0.0002208205609954431
-0.9868832488800204 0.1614353847782887 0.0002638588662421326
-0.9820586053122839 0.1885757074031874 0.0003135434236421331
-0.9757644975303578 0.218823006734824 0.0003702470244235312
-0.9676785596190222 0.2521864725705019 0.0004339425096124035
-0.957454869467393 0.2885826028319977 0.0005042577576460105
-0.9447376493081716 0.3278268400397147 0.0005804560661736695
-0.9291779440524907 0.3696321288240516 0.0006615341155122908
-0.9104528338264812 0.4136122341713951 0.0007464054367249886
-0.8882892412993199 0.4592837116103057 0.0008342909202765765
-0.8625032014110778 0.5060507581164755 0.0009261562403834722
-0.833090740905521 0.5531353851711247 0.001031062113116323
-0.8004820603095103 0.5993555103581636 0.00120138501163561
-0.7663361355201809 0.6424374668769754 0.001740272590589154
-0.7364135144849684 0.6765189971308201 0.004145142338477185
-0.8705986604705885 0.4919798679666168 -0.003712398465504519
-0.8909828625408562 0.4540365144731184 -0.0006182099991987904
-0.9127464422241254 0.4085265310248306 7.520650780991635e-05
-0.9318617378633496 0.3628135122338271 0.0002384257786256853
-0.9475884332775321 0.3194934784982734 0.0002798494327128579
-0.9601320405757672 0.2795467475032869 0.0002839368706675562
-0.9699548117999708 0.2432849945287941 0.0002729527567679261
-0.977549339761803 0.2107064862904758 0.0002548850405629569
-0.9833628037201761 0.1816522550891302 0.0002334108555514237
-0.9877751293107365 0.1558853731468779 0.0002106039318972332
-0.9910978854712779 0.133135067321492 0.000187786215804417
-0.9935810560105164 0.1131223127481712 0.0001658177677532294
-0.9954222300300969 0.09557490711575427 0.0001452299001821007
-0.9967759127219226 0.08023567704306785 0.0001262807114667754
-0.9977619367843608 0.0668663263976796 0.0001090797865186448
-0.9984726064924255 0.0552489395620482 9.360283429011501e-05
-0.9989785934690328 0.04518587650761143 7.97174453504634e-05
-0.9993336984729991 0.03649869262211749 6.732869079634484e-05
-0.9995786305486388 0.02902685266638716 5.634528754853825e-05
-0.9997439924834068 0.02262625297734916 4.657834540486373e-05
-0.9998526216907675 0.01716780308957959 3.788371685635382e-05
-0.9999214198412375 0.01253607722558188 3.017411635757213e-05
-0.999962778534328 0.008627919815761586 2.335719842695132e-05
-0.9999856817656761 0.005351257822894158 1.741689559790567e-05
-0.9999965570775065 0.002624058145957167 1.23279932702102e-05
-0.9999999303272894 0.0003732034420119351 8.037859302066463e-06
-0.9999989249706434 -0.001466300663811464 4.463224615846333e-06
-0.9999956426520715 -0.002952062800018335 1.447275638149633e-06
-0.9999914503602333 -0.004135118514409077 -1.143846658141724e-06
-0.9999871954696969 -0.005060522239200949 -3.363937665287084e-06
-0.9999833647871065 -0.005768025755122551 -5.286269830830553e-06
-0.9999802014570216 -0.006292586569843989 -6.945171732470281e-06
-0.9999777902677038 -0.006664750631012842 -8.387272318150954e-06
-0.9999761179887384 -0.006911104013196128 -9.669092124280818e-06
-0.9999751153849615 -0.007054678982654874 -1.073702476116905e-05
-0.9999746855912973 -0.007115338579705806 -1.155342310455097e-05
-0.9999747222029287 -0.007110190551549137 -1.206215386407276e-05
-0.9999751213717678 -0.007053827878970219 -1.223812706774921e-05
-0.9999757884658284 -0.0069586159065426 -1.211650312624323e-05
-0.9999766410757216 -0.006834995683353116 -1.170153246290099e-05
-0.9999776103008382 -0.006691694555282765 -1.100015616505753e-05
-0.9999786395166602 -0.006536085192957695 -1.003788046078664e-05
-0.9999796842203672 -0.006374250342581965 -8.894077904487447e-06
-0.9999807106635333 -0.006211138543273319 -7.671425184020106e-06
-0.9999816938973645 -0.006050770921678128 -6.435129775050933e-06
-0.999982616564287 -0.005896315950550303 -5.239549742097032e-06
-0.9999834671210714 -0.005750258004124527 -4.1720968792549e-06
-0.9999842395267623 -0.005614328735626185 -3.306137522549338e-06
-0.9999849318663699 -0.005489629582565048 -2.693901173673988e-06
-0.9999855455518347 -0.0053766794368168 -2.373307966087432e-06
-0.9999860851549056 -0.005275366434270685 -2.355728233133941e-06
-0.9999865577502691 -0.005185008362935449 -2.65396221997631e-06
-0.9999869732961316 -0.005104236229250077 -3.249151587357076e-06
-0.9999873440718335 -0.005031071380709309 -4.11371546815179e-06
-0.999987685091246 -0.004962825687841783 -5.200251120105703e-06
-0.9999880145954402 -0.004895980422564119 -6.416500388468855e-06
-0.9999883540101372 -0.004826156322502773 -7.697196399731447e-06
-0.9999887284909761 -0.004747926944820307 -8.984826548129374e-06
-0.9999891664710405 -0.00465476495247993 -1.018774898272667e-05
-0.9999896999652997 -0.004538704421285321 -1.120203736819028e-05
-0.9999903634414254 -0.00439008904458325 -1.193593019010825e-05
-0.9999911908377006 -0.004197391343558348 -1.23655075347291e-05
-0.9999922113932167 -0.003946770486684853 -1.247513337178203e-05
-0.9999934415714087 -0.003621693728889867 -1.219440967370945e-05
-0.9999948724789797 -0.00320232464058014 -1.151715119806052e-05
-0.9999964488837867 -0.00266497850454838 -1.045879414275147e-05
-0.9999980367045171 -0.001981541003342121 -9.075415528134245e-06
-0.9999993743200135 -0.001118617002771072 -7.455347441267445e-06
-0.9999999993108591 -3.670313876810567e-05 -5.582180775884876e-06
-0.999999140795972 0.00131087580762696 -3.45459822954919e-06
-0.9999955623940289 0.002979125907118351 -1.038668202924785e-06
-0.9999873369915134 0.005032479875689426 1.709266478261378e-06
-0.9999715270476074 0.007546195782347723 4.825973157376382e-06
-0.9999437348840121 0.010607874163486 8.48194715235279e-06
-0.9998974782014651 0.01431897065981013 1.286831171600032e-05
-0.9998233293606786 0.01879653518744038 1.819546985709551e-05
-0.9997077494602236 0.0241746780396172 2.471549246208441e-05
-0.9995315287765282 0.03060591312619672 3.260931855516941e-05
-0.9992677319552 0.0382622281619692 4.206175605971455e-05
-0.9988790529548757 0.04733534325335687 5.335782451173949e-05
-0.9983144726946886 0.05803627435115415 6.684132483594234e-05
-0.9975051641849699 0.07059348790226179 8.300668235040271e-05
-0.9963596803292005 0.0852489116293364 0.0001023733668442225
-0.9947585594364318 0.1022516146135583 0.0001254467017433904
-0.9925486926136966 0.1218485511054129 0.0001529194315751779
-0.9895380686084938 0.1442718834540718 0.0001855240841511285
-0.9854917805936361 0.1697230103607099 0.0002239117735892133
-0.9801305201551058 0.1983534502986391 0.0002687286859124509
-0.9731328587274288 0.2302440805060141 0.0003204011882648022
-0.9641424926214169 0.2653848344044848 0.0003789325329679729
-0.9527812097015094 0.3036573222366544 0.0004439502140335129
-0.9386672935963782 0.3448237913137404 0.0005146615085849572
-0.9214383017567981 0.3885242695519663 0.000589936147766705
-0.9007776707967247 0.4342800258670684 0.0006685259345995304
-0.8764475492010579 0.4814967619098108 0.0007495130589469187
-0.8483403942731718 0.5294505454632337 0.0008338783622875295
-0.816589033461232 0.5772187482643577 0.0009311729046657621
-0.7818476593824433 0.6234685547153056 0.001094896982684081
-0.7460900269137433 0.6658430965815211 0.001625569002104192
-0.7153289889753857 0.6987764858318773 0.003982509247209029
-0.8399902579694059 0.5425890780204818 -0.003668641352592939
-0.8643535804746609 0.5028840826929212 -0.0006980649916976273
-0.8909153872000878 0.4541693214441828 -1.757975103120428e-05
-0.9145987069670428 0.4043626832347756 0.0001600668149290271
-0.9342535666262929 0.3566093450000757 0.0002197832281952945
-0.9499959707138101 0.3122620662833338 0.0002399749740026982
-0.9623421404534613 0.2718410312762553 0.0002417066654049219
-0.9718877073751984 0.2354447490814921 0.0002332014873012725
-0.9791888127855993 0.2029512775873805 0.0002187262625252149
-0.9847234271348069 0.1741256203716254 0.0002009529212941486
-0.9888853278454952 0.1486801108180381 0.0001817114273610878
-0.9919908917030443 0.1263093205167631 0.0001622614921241518
-0.9942901201848204 0.1067105258567154 0.0001434372264201929
-0.9959782672108637 0.08959506369435329 0.0001257189307521317
-0.9972064961331011 0.0746939897725639 0.000109370009449212
-0.9980909889929059 0.06176057614710736 9.447295832548746e-05
-0.9987204804018334 0.05057069773783707 8.097060667951464e-05
-0.9991623447922695 0.04092192582095422 6.882091155983764e-05
-0.9994674252074333 0.03263223234644878 5.797681139857105e-05
-0.999673840644292 0.02553840245552419 4.828571513343819e-05
-0.9998099645093171 0.01949444273645864 3.962666328993649e-05
-0.999896744985824 0.01437005036019718 3.192803371405968e-05
-0.9999495069181569 0.01004902899817357 2.510634927894436e-05
-0.9999793406549051 0.006427899860529942 1.915108401777342e-05
-0.9999941698674475 0.003414679165292798 1.404678201359383e-05
-0.9999995697418073 0.0009275889544239716 9.743284770289717e-06
-0.9999993884815402 -0.001105892712001476 6.152590397934945e-06
-0.9999962190281981 -0.002749894474193293 3.112595036179972e-06
-0.9999917537762316 -0.004061081051182611 4.813302483755981e-07
-0.9999870491111299 -0.005089362118969863 -1.799051008036045e-06
-0.9999827205088188 -0.005878662208559542 -3.797258744068107e-06
-0.9999790853467931 -0.006467521802674635 -5.542817196205991e-06
-0.9999762666902534 -0.006889557759852129 -7.077857167304517e-06
-0.9999742667013694 -0.007173971255486941 -8.454793331733732e-06
-0.9999730176130048 -0.007346016161439047 -9.617513504940785e-06
-0.9999724161428 -0.007427438513477661 -1.051946549529597e-05
-0.9999723455321986 -0.007436938058928558 -1.109686675852027e-05
-0.9999726901692694 -0.007390452454540296 -1.132038133222215e-05
-0.99997334381137 -0.007301475241041547 -1.122548352050443e-05
-0.9999742134544104 -0.007181386292451575 -1.082365154090382e-05
-0.9999752210005792 -0.007039693341448147 -1.012425943573092e-05
-0.9999763020657015 -0.006884418871129364 -9.154857067615062e-06
-0.9999774058045238 -0.006722188368271588 -7.999751952555988e-06
-0.9999784934685406 -0.006558395731158485 -6.769121416151792e-06
-0.9999795362641453 -0.00639742309936172 -5.534639080013681e-06
-0.999980513927021 -0.006242735564324834 -4.350208765899312e-06
-0.9999814127703204 -0.006097056909548104 -3.303856826733575e-06
-0.9999822252724272 -0.005962309377055454 -2.469087465202724e-06
-0.9999829485803975 -0.005839738423691787 -1.896407995479057e-06
-0.9999835836107183 -0.005729965657411433 -1.621732118601757e-06
-0.99998413482536 -0.005632947260874044 -1.652869803709716e-06
-0.999984609559964 -0.00554803020898192 -2.001433523383752e-06
-0.9999850184267771 -0.005473839145399405 -2.647224738662211e-06
-0.9999853747527842 -0.005408351674458576 -3.563523731779261e-06
-0.9999856950617326 -0.005348798907380892 -4.706573312370214e-06
-0.9999859996657198 -0.005291543888370863 -5.985657459283885e-06
-0.9999863127485307 -0.005232041833276461 -7.33839774868959e-06
-0.9999866630587403 -0.005164651855201166 -8.709736354494524e-06
-0.9999870835682705 -0.0050825777313461 -1.001145179011811e-05
-0.9999876120096556 -0.004977519776590604 -1.114002031290258e-05
-0.9999882899283175 -0.004839407225749576 -1.199758530626736e-05
-0.9999891597559646 -0.004656201547690144 -1.255812749948085e-05
-0.9999902606309143 -0.00441344302743943 -1.280467004923127e-05
-0.9999916200621148 -0.004093854556164798 -1.266566927756e-05
-0.9999932408283583 -0.003676703737506342 -1.213354914356958e-05
-0.9999950788156866 -0.003137231015366104 -1.122338422951188e-05
-0.9999970083765307 -0.002446045380921295 -9.999129488219867e-06
-0.999998770272172 -0.001568241323185272 -8.561310906785344e-06