# OOMMF: rectangular mesh v1.0
# Segment count: 1
# Begin: Segment
# Begin: Header
# Title: 
# Desc: time = 1.6232294181481824e-10
# Desc: stepsize = 4.4824948236172704e-13
# Desc: step = 340
# meshunit: m
# valueunit: (none)
# valuemultiplier: 800000.0000000002
# xmin: 0
# ymin: 0
# zmin: 0
# xmax: 4e-07
# ymax: 1e-07
# zmax: 4e-09
# ValueRangeMaxMag: 1
# ValueRangeMinMag: 0.9999999999999996
# meshtype: rectangular
# xbase: 2e-09
# ybase: 2e-09
# zbase: 1e-09
# xstepsize: 4e-09
# ystepsize: 4e-09
# zstepsize: 2e-09
# xnodes: 100
# ynodes: 25
# znodes: 2
# End: Header
# Begin: Data Text
-0.9443103794948146 0.3290506305827847 -0.001894648102072849
-0.9511163998992594 0.3088310112044162 0.001000180548323563
-0.9593775141116335 0.2821216744094129 0.001465006966308046
-0.9673717816307765 0.2533570205774148 0.00143395558929377
-0.9743852647893122 0.2248813969351713 0.001308844508467313
-0.9802213323619524 0.1979009183763612 0.0011687978229697
-0.9849244855998386 0.1729817654854308 0.001032702975856288
-0.9886351241207302 0.1503322004729829 0.0009060108932525589
-0.9915184905361687 0.129963296458533 0.000790252180231095
-0.9937326022935845 0.1117812379730778 0.0006855479750245937
-0.995415774535273 0.09564039877411885 0.0005915476902260872
-0.9966835292271428 0.08137373519536636 0.0005077279600978822
-0.9976296936516593 0.06880993058200012 0.0004333564308145778
-0.9983291230611732 0.05778258354735529 0.0003675411558239093
-0.9988408002726157 0.04813481023200537 0.0003094425455264883
-0.9992107637751213 0.03972131435018838 0.0002583451798562515
-0.9994746669136108 0.03240902024187897 0.0002135530092634362
-0.9996599267823959 0.02607681662548507 0.0001744135746546417
-0.9997874791751239 0.02061496472064601 0.0001404073259478292
-0.9998731931752987 0.01592435967892897 0.0001110776633059565
-0.9999290034501296 0.01191556479538538 8.587687254435841e-05
-0.9999638053895514 0.008507865702443921 6.428091438923593e-05
-0.9999841584331302 0.005628568095272852 4.586917729674896e-05
-0.9999948400445186 0.00321231540804691 3.023336763396581e-05
-0.9999992794565906 0.001200331850480232 1.70219912733319e-05
-0.9999998941678797 -0.0004600304295649346 6.01939420737231e-06
-0.9999983515171464 -0.001815751678472356 -2.971723561885665e-06
-0.9999957695176805 -0.002908752761991581 -1.020348103739521e-05
-0.9999928695137541 -0.003776330225270048 -1.586434849584105e-05
-0.9999900917423783 -0.004451517701210722 -2.017981893960225e-05
-0.9999876811013547 -0.004963576912071072 -2.344724337319992e-05
-0.9999857502881501 -0.005338403388709895 -2.58825147190274e-05
-0.9999843268471513 -0.005598686930101251 -2.765335296411415e-05
-0.9999833858945221 -0.005764295134723629 -2.8922767748901e-05
-0.9999828732044521 -0.005852555976753057 -2.977091192127034e-05
-0.9999827218568457 -0.005878356504592729 -3.020892861876458e-05
-0.9999828617272936 -0.005854513881011045 -3.031351548499881e-05
-0.9999832258308443 -0.0057919901058712 -3.012559214018025e-05
-0.9999837541233101 -0.005700053379967525 -2.968024100678025e-05
-0.999984394579167 -0.005586568705072784 -2.912455518046585e-05
-0.9999851035894542 -0.005458185120627953 -2.853729383471257e-05
-0.9999858459169297 -0.005320449311030351 -2.801661261533601e-05
-0.9999865937930644 -0.00517797911739053 -2.768400521813466e-05
-0.9999873259349156 -0.005034601364185143 -2.754342373343489e-05
-0.9999880271263626 -0.004893346678377503 -2.760815400087125e-05
-0.999988686921044 -0.004756601198962006 -2.78380992087154e-05
-0.9999892988503575 -0.004626164077992493 -2.811927645355399e-05
-0.9999898600899014 -0.004503211351146617 -2.837086275797518e-05
-0.9999903702068671 -0.004388471586925345 -2.847214510785116e-05
-0.9999908310317448 -0.00428217821273767 -2.832303600532682e-05
-0.9999912463562256 -0.004184069013709057 -2.788208345901273e-05
-0.9999916212159282 -0.004093502562352981 -2.710555497821876e-05
-0.9999919623798713 -0.004009301420427122 -2.603408664361259e-05
-0.9999922780662278 -0.00392978322662997 -2.473272279994462e-05
-0.9999925779139424 -0.003852736063950559 -2.327765698983443e-05
-0.9999928736115911 -0.003775215291322364 -2.180679718383104e-05
-0.9999931785189555 -0.003693575475521485 -2.039025241485936e-05
-0.9999935078737139 -0.003603310357761221 -1.910209859557243e-05
-0.9999938787811531 -0.003498867925239166 -1.798515449357912e-05
-0.9999943091913347 -0.003373617842078894 -1.695878856550681e-05
-0.9999948170080603 -0.003219581042881488 -1.596634090705988e-05
-0.9999954179209902 -0.003027196050699455 -1.486924067964459e-05
-0.9999961214678923 -0.002785115375045649 -1.34729268181451e-05
-0.9999969253011606 -0.002479768516803837 -1.167596251453009e-05
-0.9999978056124714 -0.002094918460042457 -9.321326001878637e-06
-0.999998701938294 -0.001611236245781456 -6.283841502362019e-06
-0.9999994943487167 -0.001005632103349783 -2.526473910122807e-06
-0.9999999686084895 -0.0002505567596688876 2.080805515282801e-06
-0.999999764268078 0.0006865889917790056 7.703530229342878e-06
-0.9999982990128545 0.001844386166058235 1.452817366989187e-05
-0.9999946587500074 0.003268324783241281 2.290342799853891e-05
-0.9999874410911463 0.005011641657865119 3.328473591146415e-05
-0.9999745330013942 0.007136611429658264 4.610797710830545e-05
-0.9999527984535501 0.009715813532424799 6.19057059231344e-05
-0.9999176459399796 0.01283334464866396 8.125871163018883e-05
-0.9998624320252618 0.01658632185230878 0.0001046515153075485
-0.9997776507599594 0.02108628554751683 0.0001326751851646623
-0.9996498536514286 0.02646020630823263 0.0001660626479752058
-0.9994602281516254 0.03285133285615877 0.0002056031973850791
-0.9991827620393996 0.04041960431253169 0.0002522509364409445
-0.9987819411232598 0.04934105517911801 0.0003071805069260184
-0.9982099307037194 0.05980632202451639 0.0003716051331259948
-0.9974032367447785 0.07201794081694889 0.0004466895176641616
-0.9962789405749113 0.08618577482616117 0.0005336520833297716
-0.9947307059302731 0.1025203448467162 0.0006336970651044006
-0.9926248712533939 0.121224195549868 0.0007479187589135154
-0.9897971349970131 0.1424810928964297 0.0008773361631045362
-0.9860504776538715 0.1664434115765387 0.001022869167639908
-0.9811549019816412 0.1932191856629634 0.001185162071974261
-0.9748494506143941 0.2228602407001268 0.001364460294431171
-0.9668467301062128 0.2553526293574499 0.001560500932510927
-0.9568397315680104 0.290610712805707 0.001772482839437995
-0.9445104100704438 0.3284754000097341 0.001999214097227975
-0.9295400534486813 0.3687143537782789 0.002239274991669406
-0.9116238370699269 0.4110179727470596 0.002491137250428912
-0.8904980643156641 0.454978697048898 0.002753666962759665
-0.8660043289118665 0.5000273245393577 0.003029359654985804
-0.838261848235159 0.5452576262774711 0.00334586007360883
-0.8082029899235801 0.5888910962143176 0.003899215060010363
-0.7798511067814816 0.6259381997007419 0.005798396941569622
-0.9255819941062791 0.3785330911460196 -0.003266663999077163
-0.9368266768928618 0.3497939011920875 -6.442590427731723e-05
-0.9487076705699266 0.3161541406678527 0.0005613736318534829
-0.9593685012641273 0.2821553971573683 0.0006408097919783959
-0.9683711282217976 0.2495134960054472 0.00061101356940068
-0.9757114499959548 0.2190590225373968 0.0005576663439019745
-0.9815577146494932 0.1911653796789322 0.0005004240931950682
-0.9861362870067741 0.1659368120632752 0.0004448041927829206
-0.9896762155348008 0.1433207392239905 0.0003925722904389207
-0.9923844817180871 0.1231784149533533 0.0003442886909667143
-0.9944374148311917 0.1053287135052481 0.0003001585999991346
-0.9959800838202042 0.08957457730360019 0.0002602582941585808
-0.9971292112381044 0.07571846351788937 0.0002244508085571121
-0.997977315674069 0.06357075097823346 0.0001924059329812663
-0.9985969437279095 0.05295391531396863 0.0001637992633025611
-0.9990445006889651 0.04370430748337437 0.000138385456907979
-0.9993635251049686 0.03567255608386298 0.0001158974282712403
-0.9995874018265205 0.02872310708804434 9.60672407229114e-05
-0.9997415590243388 0.02273343273089642 7.871374831561815e-05
-0.9998452272948074 0.01759310661399374 6.368251732506541e-05
-0.9999128395643886 0.01320267789146539 5.0702810981751e-05
-0.9999551332779544 0.009472585216016578 3.9501814900908e-05
-0.9999800134785201 0.006322321618076814 2.988069406528498e-05
-0.9999932299050509 0.003679629925714497 2.162576363526143e-05
-0.9999989052228544 0.001479642220866024 1.455990274357415e-05
-0.9999999436294263 -0.0003356586235829016 8.627422913011273e-06
-0.9999983474815445 -0.001817971371916054 3.77770589992495e-06
-0.9999954598374953 -0.003013354340725956 -1.13712345002327e-07
-0.9999921483422538 -0.003962731893935132 -3.12727893502725e-06
-0.9999889440384774 -0.004702315575547463 -5.388739582446583e-06
-0.9999861443108675 -0.005264136762535751 -7.10140709306002e-06
-0.9999838885289017 -0.005676496458188403 -8.400980856593134e-06
-0.9999822141115663 -0.005964174074456936 -9.388211819171887e-06
-0.9999810956127763 -0.00614884653446764 -1.016692556398935e-05
-0.9999804722466389 -0.006249400729966182 -1.076593748248973e-05
-0.9999802675988033 -0.006282060863284098 -1.11505682890548e-05
-0.9999804010509419 -0.00626078150541691 -1.135509278659099e-05
-0.9999807953310212 -0.006197486545692177 -1.138655245002147e-05
-0.9999813809899252 -0.006102257520410201 -1.12532813924393e-05
-0.9999820977850937 -0.005983643255093979 -1.107783712555305e-05
-0.9999828951895345 -0.005848863917001561 -1.091955905672407e-05
-0.9999837323268915 -0.00570394281598978 -1.085960908126267e-05
-0.999984576967095 -0.005553891146959714 -1.100307844459561e-05
-0.9999854043973885 -0.00540285697856607 -1.134282711691563e-05
-0.9999861968727607 -0.005254133871894676 -1.188309951884671e-05
-0.9999869421559494 -0.005110318917883789 -1.257580822133982e-05
-0.999987632598507 -0.004973376426134137 -1.330251945507585e-05
-0.9999882647225341 -0.004844607500945903 -1.397772579240564e-05
-0.9999888378432018 -0.004724825859798531 -1.447747356737081e-05
-0.9999893538938364 -0.004614312823621593 -1.470213780674073e-05
-0.9999898170790837 -0.004512817821121576 -1.461004476882205e-05
-0.9999902330889086 -0.004419674908441922 -1.415957030695028e-05
-0.9999906096221357 -0.004333646045760706 -1.339771566601326e-05
-0.9999909560968423 -0.004252948491764584 -1.239552614577667e-05
-0.9999912836243787 -0.004175230410800818 -1.123759708305188e-05
-0.9999916057198188 -0.004097363595451506 -1.007296075209454e-05
-0.9999919379384893 -0.004015467262627988 -8.982607219560281e-06
-0.9999922981224197 -0.00392474597425532 -8.05472873273869e-06
-0.9999927064492126 -0.003819292388404732 -7.350539046003506e-06
-0.9999931843704268 -0.003692040941746992 -6.810134703813118e-06
-0.9999937536513919 -0.003534489668456655 -6.401732614049642e-06
-0.9999944340400989 -0.003336443104138996 -6.019523433431989e-06
-0.9999952389333719 -0.003085786814134197 -5.506874835670066e-06
-0.9999961689797612 -0.002768032280267169 -4.80586541725221e-06
-0.9999972013935933 -0.002365838206531691 -3.815972355146028e-06
-0.999998272890546 -0.001858550454448938 -2.476465215382796e-06
-0.9999992539671873 -0.001221500875936874 -8.237282147023911e-07
-0.9999999095754816 -0.0004252618440024409 1.179797149867746e-06
-0.9999998403830818 0.0005649963693017491 3.593481656669313e-06
-0.9999983970594214 0.001790485010903289 6.481773198865975e-06
-0.999994555642731 0.003299785449584477 1.004405779923054e-05
-0.9999867397787828 0.00514976257595298 1.456062033477716e-05
-0.9999725681625037 0.007406923228541482 2.026754834833752e-05
-0.9999484996147837 0.01014876169545136 2.746254097852365e-05
-0.9999093412412524 0.01346506478708879 3.645220842544874e-05
-0.9998475703002639 0.01745949359712806 4.741297383022321e-05
-0.9997524127691872 0.02225105596881527 6.058432794716872e-05
-0.9996086152018449 0.02797517816092333 7.629622885494606e-05
-0.9993948287806753 0.03478458282240089 9.489107254003341e-05
-0.9990815243256393 0.04284966862791658 0.0001168316490673817
-0.9986283786612666 0.05235781655249978 0.0001427523191034302
-0.9979810796558057 0.06351168884922957 0.0001732874792497061
-0.9970675531613599 0.07652614423108597 0.0002090022523461001
-0.9957937293027074 0.09162306439881118 0.0002505026497406927
-0.9940390937542414 0.1090238095856854 0.0002983817523988316
-0.9916524163502535 0.1289393672617153 0.0003531527310217039
-0.9884482868274772 0.1515579486038388 0.0004153105121953477
-0.9842052580919703 0.1770304335490426 0.0004853262361626934
-0.978666347475821 0.2054552574021682 0.0005634928073310107
-0.9715425060844018 0.2368643843947024 0.0006498280986926587
-0.9625193601949147 0.2712119609111198 0.0007439816643401299
-0.9512669377833948 0.3083674734731418 0.0008452123955260672
-0.9374515711962144 0.3481144126646137 0.0009525528435430313
-0.9207495783904091 0.3901526362905623 0.001065030237925484
-0.9008647058434411 0.4340983583763369 0.001181956250921634
-0.8775580407522038 0.4794686483550084 0.001303976907122633
-0.8507181038744417 0.5256202418049193 0.001438452367111557
-0.8205620682757367 0.5715550983680843 0.001631452265421798
-0.7883203190045772 0.6152612251657971 0.002167821949163694
-0.759125953773365 0.6509279455393977 0.0045382842063218
-0.9001794724836325 0.4355050895363754 -0.003497757424695969
-0.9160580648985982 0.4010455292032497 -0.0003244076456159327
-0.9327097740212009 0.3606277315718705 0.0003415649961856342
-0.947274166710825 0.3204238464360749 0.0004601276152782599
-0.9592930215166697 0.2824122626161761 0.0004612953823422893
-0.9689296881364522 0.2473359502311219 0.0004326327136293875
-0.9765159134274694 0.2154449218556273 0.0003955623050189679
-0.9824084594759325 0.1867444550904792 0.000356711486329962
-0.9869368532596602 0.1611072505941435 0.0003185654019904463
-0.9903853225359159 0.1383359435349547 0.0002821909337915037
-0.9929896658269677 0.1182009389573262 0.0002481742400458383
-0.994940717777607 0.1004635310223684 0.0002168932855687623
-0.9963903428164615 0.08488962967561807 0.000188455911005584
-0.997457957183151 0.07125726048217637 0.0001627285772703967
-0.9982366193982996 0.05936019053372352 0.0001395423017239757
-0.9987983148321538 0.04900930707235081 0.0001187802064674566
-0.9991983653925611 0.04003269337869622 0.0001002879909155288
-0.9994790269264001 0.03227487717320453 8.389106485031032e-05
-0.9996723725804358 0.02559575496176705 6.947905627118158e-05
-0.9998025823012537 0.01986940310205746 5.695711191063677e-05
-0.99988775161161 0.0149827250745565 4.611310932866455e-05
-0.9999413080780789 0.01083416126568739 3.672559154210331e-05
-0.9999731152848075 0.007332658972770402 2.863539114019176e-05
-0.9999903342558614 0.004396694850761122 2.166194312040234e-05
-0.9999980922452909 0.001953269208557741 1.565813151242443e-05
-0.9999999979742283 -6.276366073165408e-05 1.059554572788315e-05
-0.9999985390578184 -0.001709339228485818 6.452139188827488e-06
-0.9999953853941932 -0.003037956636581602 3.129324786291056e-06
-0.9999916183925401 -0.004094281909014695 5.633211693161122e-07
-0.999987903341626 -0.004918655160096748 -1.35460028343425e-06
-0.9999846170132365 -0.005546686308052827 -2.809043927405842e-06
-0.9999819411591955 -0.006009770385468935 -3.924407373158918e-06
-0.9999799313686834 -0.006335363992120899 -4.792727880518911e-06
-0.9999785652168961 -0.006547448086392659 -5.505778704956457e-06
-0.9999777760700672 -0.006666883000849447 -6.083992055657814e-06
-0.9999774770590832 -0.006711581964879491 -6.486814550910477e-06
-0.9999775752660577 -0.006696933597418374 -6.738486208744128e-06
-0.9999779810146755 -0.006636071053422251 -6.840073173384994e-06
-0.9999786133248679 -0.006540095310889389 -6.796926456613725e-06
-0.9999794017921886 -0.006418406819789981 -6.725494238513192e-06
-0.9999802872887518 -0.006278932172209756 -6.684474871675396e-06
-0.999981221866395 -0.006128284340291694 -6.755414827491512e-06
-0.9999821676529456 -0.005971961700715167 -7.039955725287154e-06
-0.9999830955557705 -0.005814511671702504 -7.53115601333582e-06
-0.9999839845365711 -0.005659558517632849 -8.230886131620649e-06
-0.9999848199803135 -0.005509966098143725 -9.084970199190477e-06
-0.999985592615665 -0.00536791036335093 -9.971353027584333e-06
-0.9999862979785678 -0.005234858022772336 -1.079815203699206e-05
-0.9999869349055832 -0.005111740150596138 -1.143543289715322e-05
-0.9999875052847693 -0.004998913433873434 -1.178234148478758e-05
-0.9999880136600661 -0.004896161462523634 -1.17952533522366e-05
-0.9999884663879598 -0.004802807546207139 -1.143370650871847e-05
-0.9999888721830842 -0.004717562340479893 -1.07501818884354e-05
-0.9999892418379883 -0.004638546308919622 -9.819627265431486e-06
-0.9999895882116212 -0.004563265506728939 -8.733088004323214e-06
-0.9999899270362241 -0.004488403680546481 -7.647716264626739e-06
-0.999990276609515 -0.004409834714239105 -6.649685603192928e-06
-0.9999906581026392 -0.004322461501081029 -5.832814170703532e-06
-0.9999910957217808 -0.004220005857981646 -5.264066618880176e-06
-0.9999916156693337 -0.004094944096149166 -4.887163893456847e-06
-0.9999922451573008 -0.003938223383830568 -4.673239132197323e-06
-0.9999930099955855 -0.003738975729199042 -4.523789742649101e-06
-0.9999939299139998 -0.003484267031414096 -4.290431837484147e-06
-0.9999950115239279 -0.003158624996893275 -3.922735813100108e-06
-0.9999962365351901 -0.002743520424255527 -3.337237782103967e-06
-0.9999975427366977 -0.002216870399006652 -2.489986970622543e-06
-0.9999987951701879 -0.001552306710052117 -1.43187307965237e-06
-0.9999997419638845 -0.0007183816124616494 -1.511004090188862e-07
-0.9999999481143225 0.0003221326248874342 1.386981807203885e-06
-0.9999986986745353 0.001613269612840641 3.223634391146607e-06
-0.9999948577957454 0.003206922445661977 5.522122431200875e-06
-0.9999866672326762 0.005163843944673415 8.520535402512245e-06
-0.9999714599567234 0.007555072332874746 1.241225472452415e-05
-0.9999452573907081 0.01046336072704085 1.743921355232318e-05
-0.999902210570949 0.01398458891214352 2.383878896918357e-05
-0.9998338296421869 0.01822942941839403 3.171935587237834e-05
-0.9997279366825309 0.02332489904608127 4.124292831653772e-05
-0.9995672686191697 0.02941551858644768 5.264506075679454e-05
-0.9993276382464708 0.03666424768052342 6.617213907261981e-05
-0.9989755613217323 0.04525285766690121 8.218825068504909e-05
-0.9984652797237472 0.05538117858592189 0.0001012156751407332
-0.9977351217496563 0.06726523253111463 0.0001237729088843926
-0.9967032084509471 0.0811337886890395 0.0001503214879066089
-0.9952626465892329 0.09722258693057342 0.0001813690221431948
-0.9932765048519582 0.1157658742490555 0.0002174130380470593
-0.9905730599252168 0.1369852033145366 0.0002588885231688277
-0.9869420938638976 0.1610751674845337 0.0003062341820637891
-0.9821332469333077 0.1881864919669385 0.0003598741659952763
-0.9758574155524958 0.2184081684947159 0.0004200547424517555
-0.967792044163984 0.2517505160435285 0.0004867491283922942
-0.957590777386462 0.2881312026809493 0.0005595587728476371
-0.9448971777362597 0.3273666398286684 0.0006376780830998013
-0.9293615009491699 0.369170261630193 0.0007200565258213665
-0.910659900656936 0.4131560192623469 0.0008056567446842299
-0.8885183283850386 0.4588402566720672 0.0008938573529638284
-0.8627521180108126 0.50562615737119 0.0009858244778168305
-0.8333569645316048 0.5527340947950672 0.001090925179247183
-0.8007630523848998 0.5989799170362521 0.001262110321016441
-0.7666297012847836 0.6420869481277529 0.001803372394007685
-0.7367174016186132 0.676187637052872 0.004213033250766599
-0.8711860662872676 0.490940485476871 -0.003503944441678362
-0.8914909945626915 0.4530382105131817 -0.0004317738256684848
-0.9131644590663953 0.4075912344404494 0.0002372873531032165
-0.9321965840970234 0.3619521863957009 0.0003786307070029361
-0.9478523633421897 0.3187094858354638 0.0004011796597382728
-0.9603378545676261 0.2788387592598132 0.0003891258108709482
-0.9701140827230452 0.2426489929247617 0.0003643281802755813
-0.9776718706900117 0.2101371014980619 0.0003344181295572779
-0.9834565879642182 0.1811437217310726 0.0003027659054271462
-0.9878465562584946 0.1554320037427282 0.0002711102236939279
-0.9911520003173985 0.1327315125134431 0.0002405259086913113
-0.9936217986472383 0.1127638080982915 0.0002117455972567116
-0.9954526662557376 0.0952573092668048 0.0001851366811520757
-0.9967984324334109 0.0799553578972042 0.0001607539238997575
-0.9977784047872057 0.06662008511990457 0.0001385601520152052
-0.9984844837846315 0.05503382225035888 0.0001185320769620947
-0.9989870231009621 0.04499908397044069 0.0001005867711952309
-0.9993395659659435 0.03633764903853515 8.46011324632823e-05
-0.9995826156939263 0.02888926154413397 7.049767799557892e-05
-0.9997466115672355 0.0225102037245675 5.820746450006606e-05
-0.9998542665008724 0.01707171636600152 4.754283518114151e-05
-0.9999223893452457 0.01245848383821678 3.829552403137903e-05
-0.9999632988423133 0.008567382892633467 3.031121130502169e-05
-0.999985921129448 0.005306316471549766 2.341778457617439e-05
-0.9999966378946514 0.002593047238757665 1.747601019391038e-05
-0.9999999371349858 0.0003543654366501813 1.245637229721351e-05
-0.9999989125990398 -0.001474696991516773 8.337909467978561e-06
-0.9999956435643671 -0.002951749816844215 5.030488006836841e-06
-0.999991480786603 -0.004127753395406527 2.474467383134215e-06
-0.9999872606318303 -0.005047630506492484 5.631225600305899e-07
-0.9999834631762279 -0.005750945425881275 -8.867018138679735e-07
-0.999980327679003 -0.006272499579625506 -2.004327641107226e-06
-0.9999779371162507 -0.006642685632195827 -2.884296949368309e-06
-0.9999762774557025 -0.006887997733662264 -3.613323181612648e-06
-0.9999752791286664 -0.007031437534899456 -4.211718301356127e-06
-0.9999748461466975 -0.007092746459208617 -4.642542080022437e-06
-0.9999748736966557 -0.007088861057044138 -4.92653769266418e-06
-0.9999752595919462 -0.007034214836886068 -5.064354791928867e-06
-0.9999759109491758 -0.006941001060957666 -5.063370005729568e-06
-0.9999767467341527 -0.006819528253921044 -5.037220348187926e-06
-0.9999776987404535 -0.006678472598800523 -5.049091520558663e-06
-0.999978711472755 -0.006525072749880918 -5.186214904522491e-06
-0.9999797409729536 -0.006365344677139948 -5.550283375535029e-06
-0.9999807533684768 -0.006204261031390317 -6.137388024155328e-06
-0.9999817239478767 -0.006045802011446816 -6.947722632065369e-06
-0.9999826353859533 -0.005893120043434644 -7.919382055685989e-06
-0.9999834764902474 -0.00574862303771848 -8.924598991614828e-06
-0.999984241526111 -0.005613964924676956 -9.862678572493944e-06
-0.9999849286120197 -0.005490212797991712 -1.059462137426937e-05
-0.999985539369565 -0.005377818369350325 -1.101570969869632e-05
-0.9999860784819209 -0.005276620092262584 -1.107932449924598e-05
-0.9999865528215536 -0.005185948377934763 -1.074649246269384e-05
-0.9999869719868122 -0.005104483825918292 -1.007555830883642e-05
-0.9999873480532506 -0.005030273327222165 -9.147660616090583e-06
-0.9999876956033222 -0.004960703270536536 -8.063398015718171e-06
-0.9999880326170433 -0.004892297400013979 -6.988900621540123e-06
-0.9999883802600033 -0.004820716624469347 -6.01673129832368e-06
-0.9999887632830942 -0.004740599121540481 -5.245577952402656e-06
-0.9999892103271142 -0.004645342490120977 -4.743804622252801e-06
-0.9999897529849507 -0.00452701946638422 -4.455053202599695e-06
-0.99999042486345 -0.004376089865396694 -4.34809884592654e-06
-0.99999125920154 -0.004181088592097198 -4.324712279117247e-06
-0.9999922839973914 -0.003928349234363872 -4.239454592496814e-06
-0.9999935145100552 -0.003601516553269356 -4.042722822311475e-06
-0.9999949406265807 -0.003180991645021288 -3.659932046380978e-06
-0.9999965061983612 -0.002643403438061282 -3.055158661007421e-06
-0.9999980775271475 -0.001960851040271925 -2.281725250324383e-06
-0.9999993949224323 -0.001100069532775821 -1.338584491066521e-06
-0.9999999997649759 -2.167967745068205e-05 -1.980410860878897e-07
-0.9999991276398517 0.001320877793825717 1.178513143059785e-06
-0.9999955524801134 0.002982450559026316 2.94197118479762e-06
-0.9999873632648902 0.005027253950354316 5.315175379906352e-06
-0.9999716464458891 0.007530354069442 8.47856337873268e-06
-0.9999440389083489 0.01057917253785366 1.265196394901415e-05
-0.999898106869109 0.01427499751441535 1.804259984696242e-05
-0.9998244892946631 0.01873472697220219 2.473747604521841e-05
-0.9997097330650629 0.02409249954320583 3.287461778551967e-05
-0.9995347368350195 0.03050095147034385 4.26562068306587e-05
-0.9992727005510846 0.03813223026079331 5.430174452165701e-05
-0.9988864769183659 0.04717840167834856 6.815197190968707e-05
-0.9983252420378473 0.05785070385291181 8.469826172765293e-05
-0.9975204166675441 0.07037760599482026 0.0001044310610964296
-0.9963808476066577 0.08500111875108415 0.0001278033724291257
-0.9947874055351975 0.1019705529202676 0.0001553244503074551
-0.9925873394016469 0.1215332814637931 0.0001874998723688722
-0.9895889645515513 0.1439223078828373 0.0002247920499936064
-0.9855576219782249 0.1693401963630336 0.0002676870465788136
-0.9802141375559092 0.1979397490724555 0.0003166585821771107
-0.9732370613924599 0.2298031417445832 0.0003719899026945848
-0.9642698608589984 0.264921587201426 0.0004336745840712886
-0.9529338111661128 0.3031780008941036 0.0005013085696328591
-0.9388464139834383 0.3443357103680501 0.0005740346403527576
-0.9216442769749814 0.388035311957755 0.000650686645821811
-0.9010097309058612 0.4337982616618407 0.0007300630876023918
-0.8767037899538992 0.4810299432612364 0.0008113979050229512
-0.8486181032214815 0.5290052100555013 0.0008958900096935618
-0.8168851389923125 0.5767995169810374 0.0009934303959397795
-0.7821591219103424 0.6230776570613029 0.001158137918787967
-0.7464142188751259 0.6654794909893619 0.00169142944717352
-0.7156632470083863 0.6984337375503274 0.004053533383761299
-0.8406271223178239 0.5416031881911291 -0.00346810681185815
-0.8649147168392621 0.50191858462908 -0.0005167192656548295
-0.8913863904630341 0.4532441755487824 0.0001422265349024897
-0.9149827539525094 0.4034928373930751 0.0003002365177959331
-0.9345606786318691 0.3558036263839358 0.0003426473118582425
-0.9502381803639333 0.3115241237728149 0.0003476869575557239
-0.9625312069582241 0.2711707259894451 0.0003361516044641948
-0.9720341135353618 0.2348394818685653 0.0003160367486174868
-0.9793014170347041 0.2024071383995227 0.000291408196050355
-0.9848094955422759 0.1736380932696611 0.0002646798895469699
-0.9889507072779637 0.1482445350649252 0.0002374822085796019
-0.9920402128744861 0.1259212910076168 0.0002109761108390805
-0.9943270238484253 0.1063660430010486 0.0001858521777046097
-0.9960056116556196 0.08929050999330726 0.000162405819130914
-0.9972265219136981 0.07442609875191675 0.0001407710125940068
-0.9981054562324533 0.06152628371525085 0.0001210421252538801
-0.9987307686722333 0.05036706317667461 0.0001032197971802332
-0.9991695243118638 0.04074621547286294 8.724128754957915e-05
-0.9994723183685694 0.0324819869383497 7.307183687779984e-05
-0.9996770725883622 0.02541154972677802 6.067656729034975e-05
-0.9998120093932671 0.01938925948770651 4.989504451976879e-05
-0.9998979641867339 0.01428494216422654 4.052886658040202e-05
-0.9999501737812719 0.009982429737722568 3.242429685018937e-05
-0.9999796586906552 0.006378209693945011 2.5416938156819e-05
-0.9999942872721317 0.003380095816541685 1.937451569854392e-05
-0.9999995892818494 0.0009062189261594988 1.42614831480431e-05
-0.999999377313409 -0.001115917439595072 1.005293953573766e-05
-0.9999962175123177 -0.002750439351307209 6.665732315061044e-06
-0.9999917827943985 -0.004053927396441902 4.042825413108842e-06
-0.9999871162731481 -0.005076148480955344 2.076705017931912e-06
-0.9999828251888141 -0.005860829894728127 5.849399733866959e-07
-0.9999792221238927 -0.006446341611561307 -5.669204332484617e-07
-0.9999764277909133 -0.006866138677356999 -1.479047474623914e-06
-0.9999744432228495 -0.007149328370327675 -2.237204428298051e-06
-0.9999732001496487 -0.007321132034721913 -2.863583586393641e-06
-0.999972596088553 -0.007403179105373682 -3.324595549646612e-06
-0.9999725159479368 -0.007413995922235085 -3.635694844018582e-06
-0.9999728460096128 -0.00736934386578561 -3.797705049736045e-06
-0.9999734820334509 -0.007282528082909044 -3.823182060054572e-06
-0.9999743326230247 -0.007164780561885658 -3.825679671203516e-06
-0.9999753205922274 -0.007025538517126229 -3.875094453990159e-06
-0.9999763828767355 -0.006872675769533223 -4.065312696300144e-06
-0.9999774693407333 -0.006712733472087989 -4.498341415656506e-06
-0.9999785412001414 -0.00655111536080825 -5.173588994985285e-06
-0.9999795698838935 -0.006392165340271574 -6.089822280644544e-06
-0.9999805351488403 -0.006239332650667311 -7.177247432488673e-06
-0.9999814236562697 -0.006095266480608037 -8.301194436912343e-06
-0.9999822281453739 -0.005961820693776582 -9.350300005949789e-06
-0.9999829457718236 -0.005840210783577031 -1.017393671931749e-05
-0.9999835776435289 -0.005730997260585535 -1.066053859687097e-05
-0.9999841283287022 -0.005634090425900735 -1.075907652698338e-05
-0.9999846049843677 -0.005548845413718429 -1.043227587298978e-05
-0.9999850178531181 -0.005473935907974105 -9.745456947282005e-06
-0.999985380067724 -0.005407362901156354 -8.790027170348074e-06
-0.9999857077531212 -0.005346422216138179 -7.679574684594802e-06
-0.9999860209710379 -0.005287515398218675 -6.58967387609911e-06
-0.9999863436464584 -0.005226135186803964 -5.621022482335517e-06
-0.9999867040963005 -0.005156705036791905 -4.876585471999796e-06
-0.9999871354828593 -0.005072361306854604 -4.422393326728941e-06
-0.9999876750554157 -0.004964848397877948 -4.201171719244588e-06
-0.9999883633444525 -0.004824226179195054 -4.177913454895841e-06
-0.9999892419075779 -0.004638539752328707 -4.25132105889806e-06
-0.9999903484392682 -0.004393519090508296 -4.279287693451089e-06
-0.9999917090544217 -0.004072076210700863 -4.213184371462296e-06
-0.9999933251228112 -0.003653723299190575 -3.98452634469816e-06
-0.9999951514244765 -0.003114019079743185 -3.564934401540623e-06
-0.9999970626182695 -0.002423787486792528 -3.008608199725547e-06
-0.9999988014461874 -0.001548257345837594 -2.319330709295558e-06