# OOMMF: rectangular mesh v1.0
# Segment count: 1
# Begin: Segment
# Begin: Header
# Title: 
# Desc: time = 0
# Desc: stepsize = 1e-13
# Desc: step = 0
# meshunit: m
# valueunit: (none)
# valuemultiplier: 800000.0000000002
# xmin: 0
# ymin: 0
# zmin: 0
# xmax: 4e-07
# ymax: 1e-07
# zmax: 4e-09
# ValueRangeMaxMag: 1
# ValueRangeMinMag: 0.9999999999999996
# meshtype: rectangular
# xbase: 2e-09
# ybase: 2e-09
# zbase: 1e-09
# xstepsize: 4e-09
# ystepsize: 4e-09
# zstepsize: 2e-09
# xnodes: 100
# ynodes: 25
# znodes: 2
# End: Header
# Begin: Data Text
-0.9439162638728847 0.3301766404117654 -0.002339427847518898
-0.9507850729532696 0.3098505588976231 0.0006133515109022412
-0.9591107738678707 0.2830286755269178 0.001136784963130546
-0.9671612118383002 0.2541610786679326 0.001156030199936356
-0.9742206495278209 0.2255947164858562 0.00107234661203481
-0.9800932890462577 0.1985351640207118 0.0009661334055338323
-0.9848251725979451 0.1735472374592272 0.0008577806818635968
-0.9885582467773448 0.1508377409877569 0.0007540704294371051
-0.9914590931414035 0.1304163875643589 0.0006576335515589928
-0.9936868197138569 0.1121881457978963 0.0005694465650004398
-0.9953805988764581 0.09600637256100814 0.0004897019705539051
-0.9966566181308667 0.08170318631972769 0.0004181879326056492
-0.9976092241100843 0.06910651426834226 0.0003544801190276092
-0.998313671892106 0.05804932110344415 0.0002980481995778988
-0.9988292487100967 0.04837427270581937 0.0002483171484289514
-0.9992022280293321 0.03993576839809217 0.0002047038640044143
-0.9994684488264465 0.03260049128727038 0.0001666381864776641
-0.9996554750685972 0.02624715837917741 0.0001335754301752185
-0.9997843605739002 0.02076586926398693 0.0001050026107938723
-0.9998710702801296 0.01605728326856973 8.04419109798162e-05
-0.9999276140766384 0.01203175267962058 5.945129910223684e-05
-0.9999629454894694 0.008608479274303291 4.162460408121821e-05
-0.9999836704663516 0.005714726031018311 2.659009243062378e-05
-0.9999946039601175 0.003285095795420352 1.400935045634037e-05
-0.9999992050877123 0.001260877139447968 3.575206005582966e-06
-0.9999999157131135 -0.0004105470346322773 -4.989762049962845e-06
-0.9999984224213372 -0.001776235452250601 -1.193543302503597e-05
-0.9999958578891129 -0.002878176309070827 -1.748572423770386e-05
-0.9999929544777715 -0.003753733847718565 -2.184073200600301e-05
-0.9999901603237521 -0.004436059256681505 -2.517831040289413e-05
-0.9999877261513715 -0.004954470885199145 -2.765605492117168e-05
-0.9999857693830241 -0.005334807056057987 -2.941285112236977e-05
-0.9999843207856878 -0.005599754300131731 -3.057064462994826e-05
-0.9999833578109754 -0.005769152918940952 -3.123594667107514e-05
-0.9999828279090187 -0.005860281114996213 -3.150134458141891e-05
-0.9999826643850115 -0.005888118591018354 -3.144695623031711e-05
-0.9999827967920436 -0.005865590350514482 -3.114164297818004e-05
-0.9999831573924625 -0.005803791202422197 -3.064441098844692e-05
-0.9999836848522484 -0.005712191260896743 -3.000529909971605e-05
-0.9999843260381927 -0.005598823215571027 -2.926673166833625e-05
-0.9999850365638432 -0.005470451371299115 -2.846406562140159e-05
-0.9999857805481897 -0.005332723336319848 -2.762690514094202e-05
-0.9999865299204295 -0.005190304477233058 -2.677930269669845e-05
-0.9999872634973638 -0.005046996147738485 -2.594104975267904e-05
-0.9999879659908845 -0.00490583754522749 -2.51275348653576e-05
-0.9999886270400636 -0.004769192547556144 -2.435102447654725e-05
-0.9999892403330961 -0.004638820984232634 -2.362018622981127e-05
-0.9999898028475032 -0.004515935640051098 -2.294136981779553e-05
-0.9999903142285532 -0.004401244255248011 -2.23178049407002e-05
-0.9999907763044421 -0.004294977641097484 -2.175088505574465e-05
-0.9999911927401476 -0.004196902553026344 -2.123904739767192e-05
-0.9999915688149902 -0.004106320392422558 -2.077905158241441e-05
-0.9999919113183277 -0.004022049627080715 -2.036454393175688e-05
-0.9999922285406925 -0.003942392513009962 -1.998730876258578e-05
-0.9999925303443357 -0.003865083437521521 -1.963551029976316e-05
-0.9999928282750804 -0.003787218783313239 -1.929487748141824e-05
-0.9999931356746358 -0.003705164589544975 -1.894660365066981e-05
-0.9999934677133814 -0.003614441281938804 -1.856840418707477e-05
-0.9999938412388825 -0.003509580535243658 -1.813203624128369e-05
-0.999994274261864 -0.003383952360982047 -1.760414206550053e-05
-0.9999947848256291 -0.003229556388636502 -1.694332658158004e-05
-0.9999953888617041 -0.003036773962121886 -1.610066703245625e-05
-0.9999960964566139 -0.002794073378864926 -1.50162537686626e-05
-0.9999969056675876 -0.00248766351552071 -1.361920658260938e-05
-0.9999977926454117 -0.002101086506494699 -1.182354351204592e-05
-0.999998696256218 -0.001614743041784071 -9.527496982816734e-06
-0.9999994946237994 -0.001005339978620678 -6.608527759233142e-06
-0.9999999699212718 -0.0002452527651443842 -2.921683935574906e-06
-0.9999997562514612 0.0006982077812195625 1.706470377567327e-06
-0.999998263411082 0.00186363055835479 7.480751303012685e-06
-0.9999945665916382 0.003296448502863649 1.46447674498144e-05
-0.9999872484292861 0.005049992798220597 2.348536676759572e-05
-0.9999741750788241 0.007186654025301467 3.434159746660773e-05
-0.9999521819742015 0.009779135863517452 4.761087777962285e-05
-0.9999166375174816 0.01291177565099723 6.375948157524974e-05
-0.999860844206668 0.01668188473783062 8.33302035085237e-05
-0.9997752270103396 0.02120103811909135 0.000106953710581281
-0.9996462491490954 0.02659620726270189 0.000135356505852151
-0.9994549876320296 0.03301058937517949 0.0001693710796684126
-0.9991752980963114 0.04060393575657153 0.00020994099835697
-0.9987715053513072 0.04955212881087769 0.000258125150889533
-0.9981955790981785 0.06004570413424167 0.0003150934384123724
-0.9973838011278323 0.07228697832108646 0.0003821164783779316
-0.9962530083779504 0.08648543923485623 0.0004605412435970072
-0.9946966090686578 0.1028511131426558 0.0005517541392814785
-0.9925807111882526 0.1215857720469144 0.0006571246288772903
-0.9897408524054363 0.1428721102968636 0.0007779325681486831
-0.9859799355296343 0.1668614065621692 0.0009152775930490998
-0.9810679922608374 0.1936606560549571 0.001069980211256796
-0.9747442586388145 0.2233205912767199 0.001242482387615679
-0.9667217272120551 0.2558262092138295 0.001432764957225112
-0.9566939311371438 0.2910911052568282 0.001640294399034647
-0.9443434889980726 0.3289557724736264 0.001864012667924312
-0.9293524534854393 0.3691877533321823 0.002102377256795538
-0.9114167834738717 0.411477712458994 0.00235349774903409
-0.8902734281179262 0.4554189074993156 0.002615698622765829
-0.8657644077308123 0.5004434371059262 0.002890772236305104
-0.8380091868883397 0.5456467060310144 0.003205446653292814
-0.8079402677734133 0.5892524300043687 0.003754656331983806
-0.779581088010239 0.6262758516478728 0.005646668000097752
-0.9251126869323959 0.3796746397356084 -0.003699245647187631
-0.9364319264254942 0.3508490436363884 -0.0004424369659134454
-0.948389859395715 0.317106633821245 0.0002395452657179033
-0.9591173061683602 0.2830085830821499 0.000367301213280851
-0.9681744176458719 0.2502761566464874 0.0003773994424588227
-0.9755581937146893 0.2197409460906503 0.0003567734827771461
-0.9814386927873811 0.1917758735933215 0.0003265077555828061
-0.9860440701944329 0.1664842502231368 0.0002933633165969969
-0.9896049273025728 0.1438124479699101 0.0002601295273707632
-0.9923295189542897 0.1236206849714425 0.000228164718618281
-0.9943951829600454 0.1057269163048122 0.0001981780321796197
-0.9959477764301043 0.08993329496929597 0.0001705282855066694
-0.9971046399332273 0.0760415405721477 0.00014536520711349
-0.997958770133283 0.06386139723812435 0.0001227063936686827
-0.9985830790867544 0.05321488192434758 0.000102486067591359
-0.9990342546644428 0.04393803423374533 8.458566715775148e-05
-0.9993560587993611 0.03588123464779997 6.885605826574056e-05
-0.9995820533872112 0.02890874446892344 5.513108363284051e-05
-0.9997378086886879 0.02289786035353498 4.323852528403728e-05
-0.9998426703194999 0.01773791191179161 3.300577117825788e-05
-0.9999111615457146 0.01332923206678552 2.426539962025543e-05
-0.9999540898467241 0.009582166490446168 1.685700429031894e-05
-0.9999794162095004 0.006416154947256117 1.063012187491925e-05
-0.9999929353184773 0.003758893919229963 5.444190873089862e-06
-0.9999988055887724 0.001545580686666879 1.170119737168401e-06
-0.9999999603005847 -0.0002817685033291793 -2.310624929684778e-06
-0.9999984247909744 -0.001774933662596054 -5.105201860346733e-06
-0.9999955596150556 -0.002980049785794913 -7.310653743580246e-06
-0.9999922455510402 -0.003938115862101863 -9.013565056926154e-06
-0.9999890231094043 -0.004685462067578373 -1.029136788770774e-05
-0.9999861966386555 -0.005254179901654104 -1.121235277232033e-05
-0.9999839110572122 -0.005672520304992052 -1.183683001727234e-05
-0.9999822075899144 -0.005965262302275783 -1.221744669007621e-05
-0.9999810635455184 -0.006154055298066864 -1.240006803689604e-05
-0.9999804201004454 -0.006257736121850228 -1.242439095271588e-05
-0.9999802011798711 -0.00629262237640598 -1.232444469649895e-05
-0.9999803258294601 -0.006272783025209144 -1.212951122102723e-05
-0.9999807159127557 -0.006210286777066645 -1.186417024633439e-05
-0.9999813005210877 -0.006115429237745425 -1.154954799158413e-05
-0.999982018136735 -0.005996939025707092 -1.120285309178576e-05
-0.9999828173095714 -0.00586216411646814 -1.083898001212403e-05
-0.9999836564064218 -0.005717238007324497 -1.046950057449895e-05
-0.9999845028163162 -0.00556722777514177 -1.010464793271927e-05
-0.9999853318925153 -0.005416262984672204 -9.751744131064852e-06
-0.9999861258017614 -0.005267647984866345 -9.417585842491973e-06
-0.9999868724092903 -0.005123956104484433 -9.106301627487581e-06
-0.9999875642574886 -0.004987108635695238 -8.822152294837123e-06
-0.9999881976922911 -0.004858436243547706 -8.566822590057143e-06
-0.9999887721388926 -0.004738726258194862 -8.342637991280867e-06
-0.9999892895488315 -0.004628252500850586 -8.149304774581106e-06
-0.9999897539963643 -0.004526791191325417 -7.987532131030947e-06
-0.9999901714331048 -0.004433618779777483 -7.855242043312952e-06
-0.9999905495682848 -0.004347495144590131 -7.751571287490856e-06
-0.9999908978769777 -0.004266626808955133 -7.672578225397891e-06
-0.9999912276905419 -0.00418861360895828 -7.615583979206072e-06
-0.9999915523559305 -0.004110372173423651 -7.574406803818906e-06
-0.9999918873894013 -0.004028039035418395 -7.543985517287623e-06
-0.9999922505650216 -0.003936845618613559 -7.515172947631292e-06
-0.9999926617910498 -0.003830966993709879 -7.479567176514436e-06
-0.9999931426034938 -0.003703335101493301 -7.423892722017694e-06
-0.9999937149611456 -0.003545417381011079 -7.33494562479694e-06
-0.9999943989219565 -0.003346949800474548 -7.193583078846808e-06
-0.9999952085215652 -0.00309562355507959 -6.97966539240165e-06
-0.9999961449028643 -0.00277671298089829 -6.665659670096987e-06
-0.9999971852614111 -0.002372642102885087 -6.221433066206365e-06
-0.9999982655747679 -0.001862475774848282 -5.607451164949712e-06
-0.9999992541629069 -0.001221331563601347 -4.779239968359021e-06
-0.999999911920209 -0.0004196975462116946 -3.680121439877785e-06
-0.9999998333319196 0.0005773483283179258 -2.245113165364853e-06
-0.9999983600831984 0.0018110303031414 -3.930897982966283e-07
-0.9999944559329151 0.003329879810250757 1.970170792188442e-06
-0.9999865273840186 0.005190859836642773 4.960576516876348e-06
-0.9999721693009975 0.007460599675990005 8.713879148573457e-06
-0.999947807765405 0.01021672969827265 1.339524121085745e-05
-0.999908204063671 0.01354928328596517 1.919896006031428e-05
-0.9998457737373232 0.01756211959889742 2.635919318657056e-05
-0.9997496637035246 0.0223742863364624 3.5151434230966e-05
-0.9996045194907309 0.0281212109715679 4.590421584703771e-05
-0.999388866058319 0.03495555631727076 5.900183916737066e-05
-0.9990730227864708 0.04304752642058213 7.489574837180164e-05
-0.9986164820150411 0.05258434169901028 9.410624088260675e-05
-0.9979647082607033 0.06376854493666295 0.0001172296471699313
-0.9970453717892563 0.07681474850557067 0.0001449332572811035
-0.9957641243029934 0.0919444238920188 0.0001779501527068174
-0.9940001620214474 0.1093783835482277 0.0002170569336263664
-0.9916019962606878 0.1293267637404204 0.0002630441940642916
-0.9883840401541989 0.1519766063953555 0.0003166654596348563
-0.9841247706012562 0.1774775832873751 0.0003785756160233266
-0.9785672605553802 0.2059269645809493 0.0004492522838167747
-0.9714227149880268 0.2373554908802948 0.0005289180133742
-0.9623772435754349 0.2717161382407452 0.0006174687714410398
-0.9511015455915076 0.3088775478359024 0.0007144342687263574
-0.937262767306787 0.3486227678793178 0.0008189850951973065
-0.9205381447835621 0.3906515826745848 0.0009300281066486264
-0.9006323326073574 0.4345806096597977 0.001046503678166957
-0.8773071146610796 0.4799279750221768 0.001168484558565805
-0.850451359539709 0.5260520776710728 0.001302549426183434
-0.8202821947681036 0.5719570699619916 0.001493675639405242
-0.7880295153044526 0.6156341295317348 0.002025232019360006
-0.7588258650182784 0.6512787901864661 0.004386802082869402
-0.8996279295605623 0.4366397124565553 -0.003917889793291248
-0.9155879883650742 0.402117088914842 -0.0006945244770604493
-0.9323274180661753 0.3616152443630082 2.379791628991599e-05
-0.9469696520366088 0.3213229571991022 0.0001878789166915576
-0.9590531819313689 0.2832259569419651 0.0002270278047117881
-0.9687420202493373 0.2480702427982882 0.0002298722045497971
-0.9763697044046206 0.2161068076755836 0.0002190824080802056
-0.9822949258860777 0.1873409662164143 0.0002023748130025662
-0.9868489557223972 0.1616449969863782 0.0001831362538266855
-0.9903174911921574 0.1388208918807953 0.0001631450014378211
-0.9929375184657073 0.1186383742736458 0.0001434324548901112
-0.9949008143890875 0.1008580884123818 0.0001246183380258319
-0.9963599901491627 0.08524528471855823 0.0001070663895679534
-0.9974350449218665 0.07157739088351953 9.09726404711084e-05
-0.9982194861964659 0.05964772868972747 7.641871309813975e-05
-0.9987856479209796 0.04926688021604492 6.341014477245511e-05
-0.9991891281569968 0.04026268097361096 5.190064957203658e-05
-0.9994724021513811 0.03247946411965458 4.18120501455206e-05
-0.9996677189662343 0.02577693862417247 3.304560061257195e-05
-0.9997994004960183 0.02002893202122437 2.549295916681718e-05
-0.9998856539238369 0.01512212666082021 1.904086937150697e-05
-0.9999399936413977 0.010954858834943 1.357745663383944e-05
-0.9999723524476378 0.007436010990730622 8.993456548773006e-06
-0.9999899467734832 0.004484007701937529 5.186010111891134e-06
-0.9999979478378538 0.0020259111147982 2.058153591658865e-06
-0.9999999999941362 -3.390849201070808e-06 -4.787924701719923e-07
-0.999998619013919 -0.001661915753525333 -2.506525542053101e-06
-0.9999954962401869 -0.003001246831925995 -4.098247808331765e-06
-0.9999917291657171 -0.004067133124675871 -5.320211520077425e-06
-0.999987994729278 -0.004900036580836974 -6.230840175962137e-06
-0.999984678234771 -0.005535634411418226 -6.882171869100448e-06
-0.9999819681119029 -0.006005280798560907 -7.31952096364285e-06
-0.9999799245772999 -0.006336433135589982 -7.582583572261265e-06
-0.9999785285386158 -0.006553045274345138 -7.70562129211629e-06
-0.9999777156977104 -0.006675930528443103 -7.718057058764261e-06
-0.9999773997061457 -0.006723095900404104 -7.645201796909399e-06
-0.9999774873390831 -0.006710049078829247 -7.508212217400551e-06
-0.999977887949827 -0.006650079528935024 -7.325401055547858e-06
-0.9999785189166559 -0.006554514068783523 -7.111461785983342e-06
-0.9999793083458985 -0.006432948991853158 -6.879410610382008e-06
-0.9999801959744573 -0.006293458096254655 -6.639010508701317e-06
-0.9999811329325098 -0.006142779343402612 -6.399391799546959e-06
-0.9999820808557501 -0.005986478879615986 -6.166631601687676e-06
-0.9999830106584232 -0.00582909591168148 -5.947091764443569e-06
-0.9999839012060737 -0.005674266092277361 -5.744130773146208e-06
-0.9999847380061248 -0.005524827950586016 -5.562184910910006e-06
-0.9999855120270026 -0.00538290877732262 -5.402608382017646e-06
-0.9999862186667093 -0.005249995133206639 -5.2685071034054e-06
-0.9999868569210826 -0.005126983369535758 -5.159719974738245e-06
-0.9999874287279497 -0.005014215818399476 -5.078395979398852e-06
-0.9999879385152539 -0.004911496592759108 -5.023145324168724e-06
-0.9999883929089555 -0.004818093233921852 -4.995330712684278e-06
-0.9999888006215505 -0.004732716613960738 -4.992431345717091e-06
-0.9999891724657494 -0.004653485372867524 -5.014998987269645e-06
-0.9999895215035779 -0.004577866036530793 -5.059290430190126e-06
-0.9999898632553843 -0.004502594831149967 -5.124818697808736e-06
-0.9999902159497823 -0.004423570684577255 -5.206319960073828e-06
-0.9999906006857238 -0.004335725094564345 -5.301810113538112e-06
-0.9999910414076018 -0.004232856640222066 -5.403959316995485e-06
-0.9999915644390898 -0.004107434761169969 -5.508543832351827e-06
-0.9999921972852563 -0.003950359121039343 -5.605304183138798e-06
-0.9999929661676223 -0.003750677664339177 -5.686660382838074e-06
-0.9999938915862936 -0.003495247798529605 -5.738126064542897e-06
-0.9999949807746132 -0.003168342240192365 -5.747130101782848e-06
-0.99999621547486 -0.002751182208817276 -5.693045566229608e-06
-0.9999975326780928 -0.002221397501227582 -5.555928518565637e-06
-0.9999987950196376 -0.00155239528370948 -5.306192459988779e-06
-0.9999997460630837 -0.0007126356920218148 -4.913029727556248e-06
-0.9999999438098535 0.0003352036817253804 -4.333711735884926e-06
-0.9999986630938269 0.001635175268284972 -3.521392170824156e-06
-0.9999947539858475 0.003239134908673472 -2.41393262297298e-06
-0.9999864386079257 0.005207936189321832 -9.406934540293369e-07
-0.9999710226176894 0.007612747464151164 9.893276388445927e-07
-0.9999444898519897 0.01053647011658532 3.482222290680495e-06
-0.9999009389757246 0.01407523324665202 6.672046605046749e-06
-0.9998318097146227 0.01833990643145749 1.071763418916235e-05
-0.9997248336202694 0.02345755300010817 1.581680497361462e-05
-0.9995626319211551 0.02957269642360134 2.220563787850668e-05
-0.9993208729209899 0.03684822972637734 3.017386598142162e-05
-0.998965898305651 0.04546572793981826 4.006601788366281e-05
-0.9984517376031161 0.05562485903284311 5.229621636592675e-05
-0.9977164628051018 0.0675415080667178 6.734796864971982e-05
-0.9966779015633815 0.08144417214586326 8.578280258343137e-05
-0.9952288402612339 0.09756814950820622 0.0001082304167789591
-0.9932320149817213 0.116147088158508 0.0001353796475463502
-0.9905154059389282 0.137401609860183 0.0001679448429376097
-0.9868685923719277 0.1615250404622605 0.000206624091279236
-0.9820411311811582 0.1886667780758069 0.0002520296113611428
-0.9757439967841877 0.2189145037508304 0.0003046098261943509
-0.9676549514446351 0.2522771532327255 0.0003645565421828477
-0.9574282330296473 0.2886710796210629 0.0004317269239437807
-0.9447082271378172 0.327911741107719 0.0005055905715874633
-0.9291461863642564 0.3697120796719842 0.0005852430045677281
-0.9104193730159368 0.413686012538217 0.0006695278174965382
-0.888254804394413 0.4593504422118805 0.0007574364609973496
-0.8624685857733605 0.5061098861752491 0.0008495114922907492
-0.8330567066182769 0.5531867794707502 0.0009542416304563531
-0.8004491019973395 0.5993996773798838 0.001123329223036454
-0.7663043212945539 0.6424756295038914 0.001659113881304417
-0.7363823278729241 0.6765534664249563 0.004058850185529627
-0.8705611678161311 0.4920446576010616 -0.003912546085031407
-0.8909490067814626 0.4541026699286199 -0.0007952853725078227
-0.9127160396265592 0.4085944503379619 -7.849476140490847e-05
-0.9318345245505211 0.3628834631814217 0.0001049054885873589
-0.9475642073402525 0.3195654023141433 0.0001631301263186998
-0.960110621959141 0.2796203868912174 0.0001812071657772124
-0.9699360415674388 0.2433599025021728 0.0001819962087857712
-0.97753305615326 0.2107821004003771 0.0001740071036524651
-0.9833488128735227 0.1817280555841421 0.0001613500542597199
-0.9877632250184403 0.1559608600915591 0.0001463580219132657
-0.991087855615763 0.1332097797751966 0.0001304729540023328
-0.9935726745446968 0.1131959683980569 0.0001146146748857712
-0.9954152786425443 0.0956473375002366 9.936851420515899e-05
-0.996770196025878 0.08030671873425863 8.509212026244886e-05
-0.9977572788804029 0.06693584435101259 7.198743271388828e-05
-0.9984688536889545 0.05531676595223468 6.01469049730894e-05
-0.9989756129944158 0.04525176442178522 4.958977429375798e-05
-0.9993313701940155 0.03656242501972936 4.028433573216725e-05
-0.9995768452949472 0.02908830203754787 3.216788793748743e-05
-0.9997426522596415 0.02268542748076063 2.515694944546796e-05
-0.9998516417026533 0.01722481400342772 1.915870027731266e-05
-0.9999207297583192 0.01259102861125406 1.407481159024536e-05
-0.9999623204283492 0.00868087710705305 9.808320386847718e-06
-0.9999854079450854 0.005402208591074861 6.264128735708551e-06
-0.9999964279507343 0.002672840161050417 3.353354277772035e-06
-0.9999999119714569 0.0004195903878136128 9.921950933460707e-07
-0.9999989881207945 -0.001422587988584402 -8.952148333299312e-07
-0.9999957618887939 -0.002911391212481234 -2.378604089357844e-06
-0.9999916036800991 -0.004097872242351416 -3.519712414971154e-06
-0.9999873641177566 -0.005027085207888174 -4.3741632530244e-06
-0.9999835336684723 -0.005738672931157925 -4.990405944971751e-06
-0.9999803596049018 -0.006267405776615441 -5.411277026557799e-06
-0.9999779305285676 -0.006643675459571335 -5.673671914908273e-06
-0.9999762364322831 -0.00689394930178893 -5.809524626272594e-06
-0.9999752105193327 -0.007041186877074957 -5.846221198053235e-06
-0.9999747575738671 -0.007105222119414731 -5.806799274197371e-06
-0.9999747725597101 -0.007103112806242556 -5.711154053541248e-06
-0.9999751522415803 -0.007049458726998953 -5.575310243343245e-06
-0.9999758019193086 -0.00695669077430348 -5.413488063782935e-06
-0.9999766388372289 -0.006835331182799543 -5.236339753079503e-06
-0.9999775933927338 -0.006694227881814717 -5.053944991307768e-06
-0.9999786089768595 -0.006540761802640317 -4.87293724487092e-06
-0.9999796410003097 -0.006381031483769658 -4.700489391874813e-06
-0.9999806555256487 -0.006220012369685666 -4.540284178227345e-06
-0.9999816277410369 -0.006061696218663869 -4.397534899700486e-06
-0.9999825404762954 -0.005909206741047596 -4.273780554811222e-06
-0.9999833828295286 -0.005764897865370628 -4.172965224819774e-06
-0.9999841490004844 -0.00563042902513338 -4.095062944094212e-06
-0.9999848373156478 -0.005506825078877547 -4.043215055609836e-06
-0.9999854494985038 -0.005394513429857813 -4.016212811829555e-06
-0.9999859901344016 -0.005293346652757737 -4.016666038408485e-06
-0.9999864663685775 -0.005202601593854004 -4.042393236106627e-06
-0.9999868877711046 -0.005120963687255986 -4.095568390546762e-06
-0.9999872664021292 -0.005046485527777768 -4.173088546784735e-06
-0.9999876169942536 -0.00497652889715892 -4.276619563815823e-06
-0.9999879572693394 -0.004907677344252817 -4.402029201632555e-06
-0.9999883082710546 -0.004835628241405485 -4.550227451819904e-06
-0.9999886946758378 -0.004755049765770224 -4.715768443094374e-06
-0.9999891448736332 -0.004659411004135228 -4.898356588065922e-06
-0.9999896906438752 -0.004540768662985788 -5.090731804031106e-06
-0.9999903660068405 -0.004389517685722088 -5.290688667022263e-06
-0.9999912047622435 -0.0041940872706952 -5.488364605440618e-06
-0.9999922358375783 -0.003940587813283174 -5.67859378368071e-06
-0.9999934752856252 -0.00361238868085864 -5.847714126475296e-06
-0.9999949130985641 -0.00318963025470188 -5.986047367558953e-06
-0.9999964923057646 -0.002648648574145447 -6.074322934636628e-06
-0.9999980766024422 -0.001961314419933147 -6.096034744817636e-06
-0.9999994012741842 -0.001094264588403995 -6.023539927616246e-06
-0.9999999999507945 -8.0263053551813e-06 -5.8299815369227e-06
-0.9999990968365773 0.001343985138734538 -5.475045897843125e-06
-0.9999954500639049 0.003016592004266707 -4.916045624741311e-06
-0.9999871265850849 0.005074115425419285 -4.093198249250401e-06
-0.9999711821843817 0.007591758171185702 -2.939326548778863e-06
-0.9999432114678735 0.01065710267633073 -1.364352464014157e-06
-0.9998967220053486 0.01437168474518168 7.370905109713941e-07
-0.9998222740000139 0.01885259666925336 3.502417317048495e-06
-0.9997063128105484 0.02423402724227862 7.096344319022588e-06
-0.9995296072378737 0.03066861779286413 1.17293185413302e-05
-0.9992651950368502 0.03832844474055103 1.765603974502653e-05
-0.9988757325097721 0.047405383325845 2.519514594222042e-05
-0.9983101556330632 0.05811051500142526 3.472977830794511e-05
-0.9974995956145724 0.07067216259248413 4.672542593004203e-05
-0.9963525670521198 0.08533204742891515 6.172713998347671e-05
-0.9947495759675763 0.1023390182360678 8.036668649215523e-05
-0.9925374915992371 0.1219398092911577 0.0001033437482073691
-0.9895242881494839 0.1443664292512863 0.0001314058212961301
-0.9854750672603386 0.1698200944703229 0.000165294649695676
-0.9801105510332856 0.1984521742089451 0.0002056817230754214
-0.9731093765318848 0.2303433898784866 0.0002530711627135532
-0.96411538092324 0.2654834036020549 0.0003076996972066923
-0.952750534502267 0.3037536543410131 0.0003694321647889152
-0.9386333138750046 0.3449163819037164 0.0004376967855314604
-0.9214015182403624 0.3886116063240529 0.0005114827404838974
-0.9007388004258775 0.4343607555057085 0.0005894776170109206
-0.8764074305151744 0.4815698974671803 0.0006705156513217214
-0.8482999500030203 0.5295154621023411 0.0007551287419513112
-0.8165491421441585 0.5772753001270458 0.000852248125598291
-0.7818089047946647 0.6235172867624561 0.001014638926646855
-0.7460525226494122 0.6658853172489286 0.001541985973234857
-0.7152921993714476 0.698814646410042 0.003893517839280859
-0.8399444532373374 0.5426586220180403 -0.003864637798267265
-0.8643115559701972 0.5029560337479508 -0.0008731167769656698
-0.8908772394046682 0.4542441137861588 -0.0001714682012633451
-0.9145643692042255 0.4044403713492129 2.459649162542862e-05
-0.93422295039875 0.3566895975069882 9.989272699203765e-05
-0.9499689343603533 0.3123443708044306 0.0001333305603011209
-0.9623185109291446 0.2719247360423651 0.000146462976642135
-0.9718672761618404 0.235529139685713 0.0001479346890551147
-0.9791713203282579 0.203035723898557 0.0001423643369302809
-0.9847085949028662 0.1742095449070657 0.0001326186094967582
-0.9888728715151615 0.1487629975451097 0.0001205933333262499
-0.9919805149627361 0.1263908476247039 0.0001075684606345851
-0.9942815398067106 0.1067904990521934 9.440222138662744e-05
-0.9959712304002022 0.08967330453989197 8.165783774338155e-05
-0.9972007766627343 0.07477035620469272 6.968688741483965e-05
-0.9980863899472028 0.06183489918557102 5.869301673480767e-05
-0.998716832515826 0.05064272969214371 4.877379965364934e-05
-0.9991594964917749 0.04099145000874557 3.995601210449773e-05
-0.9994652400990673 0.03269912530662338 3.221637465622227e-05
-0.9996721973176201 0.02560268071556268 2.550171249617187e-05
-0.9998087583535341 0.01955623506627566 1.973819880341367e-05
-0.9998958894668146 0.01442948394935588 1.484326036037265e-05
-0.9999489311387255 0.01010618619542036 1.072862325091349e-05
-0.9999789865409681 0.006482778964010579 7.30767333124004e-06
-0.9999939895037719 0.003467122167156794 4.495295395904941e-06
-0.9999995223727597 0.0009773685876452612 2.212640843827828e-06
-0.9999994392017775 -0.001059054286344612 3.854651750014156e-07
-0.9999963377976 -0.002706361077084005 -1.052716227207608e-06
-0.9999919147858845 -0.004021238389132729 -2.162787717141431e-06
-0.9999872304960029 -0.005053596337828196 -2.998030838895456e-06
-0.9999829046605447 -0.005847253513826299 -3.606153242470428e-06
-0.9999792593646418 -0.006440560869609792 -4.02825772719774e-06
-0.9999764220571083 -0.006866972504033533 -4.300320667712162e-06
-0.9999743985919115 -0.00715556712736452 -4.453097390021167e-06
-0.9999731239998751 -0.00733152491402674 -4.512753165814887e-06
-0.9999724969125698 -0.007416562423003877 -4.501745514040223e-06
-0.9999724021484688 -0.007429328483859286 -4.438390564503761e-06
-0.9999727248659186 -0.007385763698096853 -4.338799431260098e-06
-0.9999733588367552 -0.007299424564292076 -4.215220697538638e-06
-0.9999742107061258 -0.007181775965678857 -4.079119600395869e-06
-0.9999752016251667 -0.007042451220806214 -3.938182929065326e-06
-0.9999762672126844 -0.006889484519234814 -3.800624652901061e-06
-0.999977356560555 -0.006729513555192362 -3.670777777353395e-06
-0.999978430721929 -0.00656795845538277 -3.55469369974397e-06
-0.9999794610344033 -0.00640917291172284 -3.454279788537572e-06
-0.999980427435973 -0.006256575227925183 -3.374235601174426e-06
-0.9999813169447589 -0.00611275309804632 -3.314726437993633e-06
-0.9999821223195371 -0.005979551033117573 -3.279670500310186e-06
-0.9999828409897654 -0.005858132412067423 -3.267968549411511e-06
-0.9999834742073296 -0.005749026131392086 -3.283124406491666e-06
-0.9999840264807589 -0.005652147581757292 -3.323079524202227e-06
-0.9999845052149923 -0.005566805046606598 -3.39111671436503e-06
-0.9999849206112559 -0.005491678974486496 -3.484375590393359e-06
-0.9999852857351139 -0.005424785733938217 -3.60595726816092e-06
-0.9999856167986643 -0.005363411387864811 -3.752221996324266e-06
-0.9999859335410091 -0.005304027215512424 -3.92598162227545e-06
-0.9999862597223529 -0.005242170304531882 -4.122703462773081e-06
-0.9999866235528847 -0.005172300883063014 -4.344648073171596e-06
-0.9999870579795173 -0.005087617560008321 -4.586122303696715e-06
-0.9999876005020119 -0.00497984123454851 -4.848392154405334e-06
-0.9999882922138823 -0.004838947086512978 -5.124141569506873e-06
-0.9999891754020452 -0.004652853902381493 -5.412962794283517e-06
-0.999990288900119 -0.00440704809447697 -5.705182913930932e-06
-0.999991659806688 -0.004084149984065724 -5.997704518651913e-06
-0.9999932897155568 -0.003663397938104505 -6.277354864752815e-06
-0.9999951325931039 -0.003120055667763401 -6.536812696427028e-06
-0.9999970603451446 -0.002424717592549177 -6.757607843853566e-06
-0.9999988102978897 -0.001542515749513734 -6.925816642901117e-06