# OOMMF: rectangular mesh v1.0
# Segment count: 1
# Begin: Segment
# Begin: Header
# Title: 
# Desc: time = 1.9423395541227992e-10
# Desc: stepsize = 3.5916949260562236e-13
# Desc: step = 420
# meshunit: m
# valueunit: (none)
# valuemultiplier: 800000.0000000002
# xmin: 0
# ymin: 0
# zmin: 0
# xmax: 4e-07
# ymax: 1e-07
# zmax: 4e-09
# ValueRangeMaxMag: 1
# ValueRangeMinMag: 0.9999999999999996
# meshtype: rectangular
# xbase: 2e-09
# ybase: 2e-09
# zbase: 1e-09
# xstepsize: 4e-09
# ystepsize: 4e-09
# zstepsize: 2e-09
# xnodes: 100
# ynodes: 25
# znodes: 2
# End: Header
# Begin: Data Text
-0.9439988410341389 0.3299426012968095 -0.00201692233278449
-0.9508548771737216 0.3096355982658095 0.0008937793466164586
-0.959168204829883 0.282832926508165 0.001374964089040467
-0.9672079681815301 0.2539820900220529 0.001358025841288174
-0.9742585695122816 0.2254300130752769 0.001244562880233462
-0.9801239954899433 0.1983827424623935 0.001113982912218428
-0.9848500245181973 0.1734054721487549 0.0009856142113063991
-0.9885783609028995 0.1507052600909156 0.0008654105763089029
-0.9914753617020582 0.1302921207377775 0.0007552558673074909
-0.9936999527799995 0.1120712906571507 0.0006554810957292843
-0.9953911683775121 0.09589630711832159 0.0005658596290472148
-0.9966650843172573 0.08159947103946279 0.0004858281116011497
-0.9976159657413658 0.06900878926742708 0.0004146103777861071
-0.9983190061346326 0.05795721220882272 0.0003514873256969006
-0.998833439025273 0.04828740625757864 0.0002957733276543964
-0.9992054930036434 0.03985375621194871 0.0002467126744406888
-0.9994709675634 0.03252296921842772 0.0002036445370828049
-0.9996573899412675 0.02617394087854166 0.0001659960813446242
-0.9997857870462334 0.0206969146077307 0.0001332143505707019
-0.9998721046171269 0.01599260525739607 0.0001048122015085905
-0.9999283364271618 0.01197144769294458 8.031278571476513e-05
-0.9999634236753798 0.008552649198742728 5.918695810255409e-05
-0.9999839617837342 0.005663434665864985 4.102550913340629e-05
-0.9999947560225052 0.00323840670673685 2.548512236784495e-05
-0.9999992572136834 0.001218778748976808 1.226547250038878e-05
-0.9999998995642078 -0.0004481854350051383 1.178813743139716e-06
-0.9999983627114609 -0.001809560863062832 -7.992508351561247e-06
-0.9999957734647492 -0.002907372192019987 -1.547820459134602e-05
-0.9999928595629629 -0.003778936806484282 -2.144063830953446e-05
-0.9999900658448301 -0.004457301036656659 -2.605993865938797e-05
-0.999987640165837 -0.004971784757519511 -2.952770513793716e-05
-0.9999856976728798 -0.005348217058138103 -3.19997244252506e-05
-0.9999842672489729 -0.005609288467057205 -3.372576954201736e-05
-0.9999833245891643 -0.005774887674034836 -3.487052841811602e-05
-0.999982815591612 -0.005862359563495253 -3.55221094785204e-05
-0.9999826719625351 -0.005886806585231454 -3.581754248642739e-05
-0.9999828217892012 -0.005861300577789064 -3.580562685632892e-05
-0.9999831966844236 -0.005796989357372719 -3.554140122855527e-05
-0.9999837347555661 -0.005703419760513715 -3.503347349241552e-05
-0.9999843826406185 -0.00558867617333169 -3.425624792726746e-05
-0.9999850963715037 -0.005459480760953846 -3.323695636394943e-05
-0.999985840369146 -0.005321469564989439 -3.198251659840372e-05
-0.9999865874371928 -0.005179190517089093 -3.051728427454874e-05
-0.9999873170854444 -0.005036351175220789 -2.889799522863357e-05
-0.9999880146545199 -0.004895897055860152 -2.719061013444759e-05
-0.9999886706471363 -0.00476003448821797 -2.547633968349739e-05
-0.9999892790960192 -0.004630456138408845 -2.385316919385846e-05
-0.9999898375512398 -0.004508247179427488 -2.239674192220144e-05
-0.9999903459057305 -0.004394046716563451 -2.118466526249213e-05
-0.9999908060679887 -0.004288049477010775 -2.027748177510207e-05
-0.9999912218887694 -0.004189959152127194 -1.969032290618007e-05
-0.999991598385833 -0.00409911940902779 -1.943751589409095e-05
-0.9999919422988474 -0.00401434399433948 -1.948521394085251e-05
-0.9999922616070158 -0.003933997314998073 -1.977904240862413e-05
-0.999992565771545 -0.003855903420781145 -2.025959395731935e-05
-0.9999928660713877 -0.003777217554088214 -2.082979020732853e-05
-0.9999931752190162 -0.003694463056144518 -2.140365260853465e-05
-0.9999935080348085 -0.003603249790071461 -2.189034298857955e-05
-0.9999938808869814 -0.003498241893998519 -2.218658901953273e-05
-0.9999943113450099 -0.003372948778963248 -2.222955868917034e-05
-0.9999948173436846 -0.003219441569740172 -2.194878913485065e-05
-0.9999954146934311 -0.003028223911975116 -2.126149462083036e-05
-0.9999961139757367 -0.002787763983113775 -2.013452827631166e-05
-0.9999969140573465 -0.002484257119674027 -1.850261541706842e-05
-0.999997792258614 -0.002101240546478667 -1.631144838344314e-05
-0.9999986893304899 -0.001618998415147598 -1.346974942053757e-05
-0.9999994857356657 -0.001014116552967092 -9.799039311992889e-06
-0.9999999664917445 -0.0002588231468443809 -5.20460560803959e-06
-0.9999997690184639 0.0006796784187589947 5.151712549686708e-07
-0.9999983071611268 0.001840004376317252 7.666501380928544e-06
-0.9999946610256547 0.003267666791374922 1.65507070922114e-05
-0.9999874191399429 0.005016054591894335 2.753483504530952e-05
-0.9999744557683428 0.007147456496105866 4.094438747127565e-05
-0.999952617154271 0.009734483870457772 5.718477994142451e-05
-0.9999172861054052 0.01286137831779645 7.678129675625024e-05
-0.9998617839506243 0.01662537053571532 0.0001002478159260191
-0.9997765575240557 0.02113808422045987 0.000128143812893142
-0.9996480980195376 0.02652648037972543 0.0001611352988363833
-0.9994575172796925 0.03293373910030044 0.0001999549606020232
-0.9991787107049988 0.04051967139005822 0.0002455694160645151
-0.9987760492915156 0.04946022522490599 0.0002991359771543431
-0.9982015533778847 0.05994604182631673 0.0003618056588096716
-0.9973915591601572 0.07217955823894935 0.0004348430758798031
-0.9962629718209481 0.08637025551282153 0.0005195586031031738
-0.9947092719040054 0.1027282016594532 0.0006172293073326154
-0.9925966274140618 0.1214553563458779 0.0007291509623157409
-0.989760621011944 0.1427346473172341 0.0008564749122639329
-0.9860041561827176 0.1667177371194658 0.001000060083814165
-0.9810971988481726 0.1935121172685938 0.001160552667862869
-0.9747788644674642 0.2231689374325998 0.001338190092954585
-0.9667619759199312 0.2556734884280087 0.001532719949158783
-0.9567398539561462 0.290939532733366 0.001743601118933852
-0.9443948836877525 0.3288075777105531 0.001969899620405998
-0.9294088547449653 0.3690451140185487 0.002210099700925346
-0.9114774848354381 0.41134259595595 0.002462395232949634
-0.8903375855936274 0.4552928243213052 0.002725399207228339
-0.8658311219178019 0.5003273531184543 0.003001339707783144
-0.8380775889872459 0.5455409684851182 0.003317610833645168
-0.8080097388706389 0.5891564179039946 0.0038700300690001
-0.7796514464910694 0.6261871620745953 0.005767151580033328
-0.9252131390386906 0.3794327017961197 -0.003387057405600571
-0.9365170321903143 0.350622046430475 -0.0001702185381247932
-0.9484598574691678 0.3168969494072623 0.0004714084603321089
-0.9591743043556711 0.2828150191545664 0.0005646276794016542
-0.9682206589191201 0.2500968957260994 0.0005462512179633232
-0.975595641970778 0.2195743407907891 0.0005022289470588147
-0.9814689922134061 0.1916204906407985 0.0004526479649686415
-0.9860685760534087 0.1663388123789682 0.0004035050889157026
-0.9896247282792581 0.1436759193562554 0.0003568968186481848
-0.9923454848853644 0.1234922681507649 0.0003135834973585349
-0.9944080154938525 0.1056059832968249 0.0002738859048192713
-0.9959580414302764 0.0898193918257145 0.0002378285642963191
-0.9971128031726426 0.07593428495504274 0.0002052256336248794
-0.9979652207545325 0.06376038908139468 0.0001759219877791199
-0.9985881399405765 0.05311971710171732 0.0001497499661995624
-0.9990381933388188 0.04384828693154738 0.0001264257765055293
-0.9993590941366177 0.03579650528064987 0.0001057172231366915
-0.9995843592680301 0.02882882346098644 8.743326802250643e-05
-0.9997395259638281 0.02282268900268609 7.136040199901601e-05
-0.9998439160828281 0.01766748954328048 5.731834442594346e-05
-0.9999120329895198 0.0132636438613364 4.510304507161099e-05
-0.9999546688736994 0.009521502645793408 3.442464445122134e-05
-0.9999797717305359 0.006360463832047 2.509156227189188e-05
-0.9999931243656073 0.003708225159786489 1.696098240835664e-05
-0.9999988750860682 0.001499909460085647 9.910051751526719e-06
-0.9999999479598866 -0.000322590953786213 3.911620971581111e-06
-0.999998360005707 -0.001811072797169348 -1.104460551170095e-06
-0.9999954648046762 -0.003011700949422057 -5.241215493167978e-06
-0.9999921376412326 -0.003965423384060173 -8.550027759364072e-06
-0.9999889150700133 -0.004708461926257351 -1.110792663390074e-05
-0.9999860980387667 -0.005272908095139943 -1.301622962287581e-05
-0.9999838287447929 -0.005687006492185354 -1.435486406656175e-05
-0.9999821461686877 -0.005975542619256052 -1.530588294182647e-05
-0.9999810255502466 -0.006160217879670125 -1.597346397658979e-05
-0.9999804062214357 -0.006259944453489291 -1.639059484673212e-05
-0.999980210233925 -0.00629117345316479 -1.664621469235638e-05
-0.9999803549504831 -0.006268128312416851 -1.675005783484836e-05
-0.9999807614741349 -0.006202934949001216 -1.672205875880366e-05
-0.9999813582739735 -0.006105966828870861 -1.654156185885697e-05
-0.9999820835876756 -0.005986003887425113 -1.615891599332834e-05
-0.9999828864410389 -0.005850348901797027 -1.558123763787061e-05
-0.999983725575629 -0.005705117426884325 -1.479966980499435e-05
-0.9999845693681085 -0.005555252882356054 -1.382356672161592e-05
-0.9999853939693255 -0.005404783694066249 -1.269773516201824e-05
-0.999986182274341 -0.005256912461922971 -1.147848343980381e-05
-0.9999869231169461 -0.005114048325578272 -1.023845561574991e-05
-0.9999876094563444 -0.004978036915178049 -9.069529481231509e-06
-0.9999882382764922 -0.0048500767002006 -8.042336722644085e-06
-0.9999888092877831 -0.004730882253351516 -7.232325735545664e-06
-0.9999893245374036 -0.004620688946804094 -6.699512256359816e-06
-0.9999897882979617 -0.004519209893328725 -6.460441570574037e-06
-0.9999902062396082 -0.004425763456970754 -6.533652097813459e-06
-0.9999905860076451 -0.004339106891717542 -6.889726659510632e-06
-0.9999909367230014 -0.004257512875689971 -7.481102263482958e-06
-0.999991269271176 -0.004178673624366755 -8.256088775272408e-06
-0.9999915966815889 -0.004099571064877036 -9.126329761386394e-06
-0.9999919337677277 -0.004016503345142947 -1.00179145664693e-05
-0.9999922978897516 -0.003924798516671234 -1.085252075323022e-05
-0.9999927083960585 -0.003818772244402342 -1.154384462575519e-05
-0.9999931863060849 -0.003691503242301471 -1.205053530458839e-05
-0.9999937534222415 -0.003534538802400085 -1.232684902330293e-05
-0.9999944296395521 -0.003337744446988384 -1.232367975284276e-05
-0.9999952295297488 -0.003088814112279367 -1.204677157071049e-05
-0.999996155130832 -0.002773011323333071 -1.147837881268145e-05
-0.9999971849621794 -0.002372752590295713 -1.0623629224758e-05
-0.999998257144633 -0.001866981054263208 -9.457237731795375e-06
-0.9999992426749206 -0.001230685782079621 -7.879759960412646e-06
-0.9999999057190995 -0.0004341971028504453 -5.887899642884425e-06
-0.9999998445785264 0.0005575226200843879 -3.383860580956275e-06
-0.9999984055878369 0.001785727232516629 -1.857603696330336e-07
-0.9999945581744816 0.003299031145321794 3.863371798852862e-06
-0.9999867156791964 0.005154452912299204 8.961494432457683e-06
-0.9999724823182532 0.007418515638099423 1.52314609808691e-05
-0.9999482966267303 0.01016875368349005 2.284347771997649e-05
-0.999908936497258 0.01349509857705754 3.205179341837436e-05
-0.9998468391447589 0.017501325618222 4.30562319119087e-05
-0.999751176751878 0.02230653357573717 5.606308066047575e-05
-0.9996066270942798 0.02804614019395999 7.134015292380307e-05
-0.9993917551677236 0.03487279385613723 8.917086661610374e-05
-0.9990769261685938 0.04295676304373515 0.0001100287148405479
-0.9986216858262656 0.05248533602699624 0.0001345349020869876
-0.997971557275761 0.06366116722807852 0.0001632658888087442
-0.9970542736865933 0.07669899971978474 0.0001968890139379253
-0.9957755649614505 0.09182030538354918 0.0002361037386054945
-0.9940147097992265 0.1092459492081442 0.0002815748057412212
-0.9916202877715055 0.1291862737071737 0.0003340143888032921
-0.9884067618297627 0.1518285806365239 0.0003940445416415232
-0.9841526061763534 0.1773229659266521 0.0004620727934794884
-0.9786008129161206 0.205767244923189 0.0005384019206421429
-0.9714624417109089 0.2371926140303447 0.0006230525901231836
-0.9624233987653396 0.2715523693525697 0.0007156870664088776
-0.9511541279266167 0.3087153371066673 0.0008158206136214388
-0.9373214947052958 0.3484645808599101 0.0009227402434816979
-0.9206024262348019 0.3904998089711509 0.001035376303744508
-0.9007013001587713 0.4344373821598243 0.001152768154071513
-0.8773797522085817 0.4797948978407499 0.001275311880064254
-0.8505266244768954 0.5259301025093175 0.001410081726767527
-0.8203591626762422 0.571846373680734 0.001602847880670202
-0.7881076893825048 0.615533669505971 0.002138139537789927
-0.7589053629163633 0.6511853382059081 0.00450615606024442
-0.8997491383029323 0.4363925089031501 -0.003614733232813039
-0.9156921760350979 0.4018801504253999 -0.0004283014883188669
-0.9324139497118401 0.3613919792638706 0.0002524014810299481
-0.9470405592944987 0.3211137362252017 0.000384003455903311
-0.9591109389326054 0.2830301219493095 0.0003960923812682743
-0.9687889058072124 0.2478868981544153 0.0003764415576327643
-0.9764076822759622 0.2159349848348285 0.0003468672160864152
-0.9823256465366893 0.1871796604579265 0.0003144314392555981
-0.9868737651634016 0.1614933192359626 0.0002819119763725228
-0.9903374759730443 0.1386781197787454 0.0002505553258194543
-0.9929535602333477 0.1185039170615868 0.000221045198960333
-0.9949136279101801 0.1007315019439589 0.0001936871641398645
-0.9963701649819875 0.08512617653485276 0.0001685298897544772
-0.9974430730990109 0.07146533931169395 0.0001456154698066501
-0.9982257756818872 0.05954229719553902 0.0001249358720406559
-0.998790536562135 0.04916759873997962 0.0001063393925749922
-0.9991928917133126 0.04016910631972037 8.970542169946977e-05
-0.999475259608351 0.03239135402842984 7.49334608845635e-05
-0.999669847382037 0.02569420957410972 6.188324522435097e-05
-0.9998009465473842 0.01995155981339652 5.043774969032109e-05
-0.9998867389018563 0.0150501738376957 4.044336336865151e-05
-0.9999407192137082 0.01088839092166381 3.164661821296839e-05
-0.9999728036816767 0.007375047547893857 2.388875097887086e-05
-0.9999901936845099 0.004428571283850686 1.706457315054485e-05
-0.9999980477394163 0.001975954064230779 1.108565627713806e-05
-0.9999999988282776 -4.80412155066385e-05 5.956991265402911e-06
-0.9999985525372976 -0.00170144662437438 1.641123040423311e-06
-0.99999539174581 -0.003035866166318492 -1.940059777611785e-06
-0.9999916072870467 -0.004096990635794447 -4.816494915290137e-06
-0.9999878712662001 -0.004925167093465355 -7.042336884256426e-06
-0.9999845648767094 -0.00555607168801321 -8.702602010332066e-06
-0.9999818731967277 -0.006021061415746056 -9.868708283896416e-06
-0.999979853684678 -0.006347606634258064 -1.071382620061465e-05
-0.9999784847481017 -0.006559718930046284 -1.133353215363246e-05
-0.9999776998511468 -0.006678297864731388 -1.174899976083029e-05
-0.99997741042164 -0.006721495482001289 -1.203809738771929e-05
-0.9999775212864428 -0.0067049811960124 -1.220585408571882e-05
-0.9999779409018874 -0.006642105028507336 -1.226421957254274e-05
-0.9999785859542238 -0.006544271121155858 -1.218536086399004e-05
-0.9999793842901206 -0.006421125508667523 -1.191439491801931e-05
-0.9999802761857041 -0.006280693303497974 -1.145381481772866e-05
-0.999981213248302 -0.006129684653741941 -1.079348748406515e-05
-0.9999821582331891 -0.005973534674006891 -9.939369887954617e-06
-0.9999830829858823 -0.005816671060582113 -8.934320570205036e-06
-0.9999839672160181 -0.005662618611872772 -7.833865639320132e-06
-0.9999847975148345 -0.005514045176053592 -6.709045034804309e-06
-0.9999855653446172 -0.005372994552819903 -5.651644997379038e-06
-0.9999862668054833 -0.005240818451624283 -4.731734923878551e-06
-0.9999869012086248 -0.005118339082490779 -4.025943435673066e-06
-0.9999874706085523 -0.005005857866631939 -3.595602423541037e-06
-0.9999879796348201 -0.004903118793667328 -3.459085166024824e-06
-0.9999884346245826 -0.004809428639504327 -3.63837068540259e-06
-0.9999888442098581 -0.004723498594864936 -4.105594859226991e-06
-0.9999892188158085 -0.004643514720418592 -4.81561320066811e-06
-0.9999895710134393 -0.004567037515531947 -5.717454712345472e-06
-0.9999899159526139 -0.004490873846051581 -6.721794955344953e-06
-0.9999902710722959 -0.0044110883703337 -7.755313088403867e-06
-0.9999906569830563 -0.004322715610952542 -8.737383056872773e-06
-0.9999910969574841 -0.004219705433212228 -9.58248357095504e-06
-0.9999916167099542 -0.004094680047563744 -1.025280809791369e-05
-0.9999922435068105 -0.003938630674370778 -1.070635511255685e-05
-0.999993003343434 -0.003740741268643802 -1.090592394891388e-05
-0.9999939172805997 -0.003487876669853871 -1.086905344684366e-05
-0.999994993530692 -0.003164301080318337 -1.059357383545145e-05
-0.9999962153191271 -0.002751226139572182 -1.010694575618706e-05
-0.9999975220717953 -0.002226154054321308 -9.401901676228255e-06
-0.9999987794808298 -0.001562359199075025 -8.401379031190006e-06
-0.9999997348866865 -0.0007281317174008941 -7.124482347012798e-06
-0.9999999506949194 0.0003139744755539341 -5.494295264504247e-06
-0.9999987070888005 0.001608045228477999 -3.357078771623437e-06
-0.9999948606914032 0.003206024085877951 -5.842447748879854e-07
-0.9999866415621994 0.005168818841546141 2.989349894512589e-06
-0.9999713661318061 0.007567487109130938 7.439215937198623e-06
-0.9999450325568459 0.01048483185400421 1.287948421273591e-05
-0.9999017586660242 0.01401686970629156 1.949945481581022e-05
-0.9998330091736132 0.0182743813857457 2.741907807709098e-05
-0.9997265449207212 0.02338448266409537 3.67615161290968e-05
-0.9995650243918813 0.02949168928284556 4.770431232278468e-05
-0.9993241619660392 0.03675888544572083 6.042897811749391e-05
-0.9989703521084137 0.04536771910743273 7.530857232017768e-05
-0.9984576862840867 0.05551792572523059 9.286223979023516e-05
-0.9977243047792895 0.06742550523954924 0.000113560005271625
-0.996688108720267 0.08131909308674039 0.0001379679923467677
-0.9952419752108145 0.09743399301162979 0.0001666861891255498
-0.9932487358088169 0.1160039167547116 0.0002002791858644296
-0.9905364501730596 0.137249712483914 0.0002393776013948372
-0.9868947556473653 0.1613649909715256 0.0002845425911083212
-0.98207320599119 0.1884996156205168 0.0003361325674196383
-0.9757826808240618 0.2187418666857522 0.0003944142986491948
-0.967700771622791 0.2521011812209688 0.0004593774557652378
-0.9574814748875479 0.288494269734453 0.0005306388132134207
-0.9447688690277244 0.3277368073335937 0.0006076469838629077
-0.9292138682340635 0.3695417588392839 0.0006896052903574073
-0.9104933704656772 0.4135229390594023 0.0007753771498783402
-0.8883340694307981 0.4591969451895827 0.0008640700624667712
-0.8625518999578469 0.5059676914591309 0.000956597420927546
-0.8331428433680302 0.5530568457886115 0.001062012704950736
-0.8005370177538949 0.5992820397102777 0.001232917835519591
-0.7663934956083739 0.6423689489405258 0.001772942813800147
-0.7364728908850022 0.6764541444999224 0.004179878032348356
-0.8707027838793088 0.4917962766478211 -0.003617239301073986
-0.891072948896828 0.453859796676647 -0.0005335774950851549
-0.9128206493731135 0.4083606738238028 0.0001488362070220182
-0.9319212868351626 0.3626604800778344 0.0003022138462648464
-0.9476354721686928 0.3193538784111044 0.0003350095572654876
-0.9601687894637332 0.2794204463014571 0.0003315545855549563
-0.9699833127063108 0.2431712862359759 0.0003140408130310222
-0.9775713573792488 0.2106042659954171 0.0002904758579030515
-0.9833797595830124 0.1815603990271438 0.0002644760111485338
-0.9877881460553354 0.1558028302167634 0.0002379264783760477
-0.9911078427772595 0.1330608847624221 0.0002119708655118234
-0.9935886210032711 0.1130558143212253 0.000187245781840117
-0.9954279244642619 0.09551554996770806 0.0001640461438108633
-0.9967801598542818 0.08018286965910913 0.0001425976939539105
-0.9977650742662687 0.06681946900667113 0.0001230288314264516
-0.998474905639177 0.05520735207729209 0.0001052874643523767
-0.998980267931911 0.04514882395210811 8.932204847156028e-05
-0.9993349032242738 0.0364656764686228 7.508273389357183e-05
-0.9995794783188383 0.02899763131473987 6.246577801268149e-05
-0.999744568355093 0.02260078328217717 5.137626689012724e-05
-0.9998529917657863 0.01714622758384151 4.167312716107632e-05
-0.9999216395662979 0.01251853150010527 3.310781328580773e-05
-0.9999628945846344 0.008614453126535294 2.551959213349411e-05
-0.9999857320646498 0.005341845500582707 1.880888827531514e-05
-0.9999965717467285 0.002618459162222594 1.289981619292363e-05
-0.9999999311521482 0.0003709915379264374 7.808775057257415e-06
-0.9999989259788368 -0.001465615523130484 3.508641653471673e-06
-0.9999956514837125 -0.002949069965241368 -7.221679736894726e-08
-0.99999147003192 -0.004130357690360693 -2.957819093880418e-06
-0.9999872263817632 -0.005054408602321567 -5.195086541603002e-06
-0.999983406061662 -0.005760864012637661 -6.866194874499853e-06
-0.9999802522465018 -0.0062845089135097 -8.045995735033477e-06
-0.9999778501708505 -0.006655756024973616 -8.91177560811696e-06
-0.9999761868265693 -0.006901136741912587 -9.563628920454853e-06
-0.999975192722562 -0.007043709183998223 -1.002029548241973e-05
-0.9999747700238673 -0.007103464541016218 -1.035510176942941e-05
-0.99997481145371 -0.007097629623718397 -1.057548712412597e-05
-0.9999752127298812 -0.007040867244938008 -1.068960861779686e-05
-0.9999758784052653 -0.006945681670744455 -1.066518618171801e-05
-0.9999767254535976 -0.006822641863297223 -1.044533913197938e-05
-0.999977684880028 -0.006680541997095143 -1.0030154137061e-05
-0.9999787006646551 -0.00652672417468881 -9.411435618458388e-06
-0.9999797294739071 -0.006367147510920925 -8.594480966380529e-06
-0.9999807384329593 -0.006206666172438185 -7.622115331520996e-06
-0.9999817036958584 -0.006049151230114885 -6.551612949166059e-06
-0.9999826092740758 -0.005897552005514344 -5.454609946889284e-06
-0.9999834448414806 -0.005754130984199609 -4.425130061099405e-06
-0.9999842053433482 -0.005620413804697006 -3.535023147416849e-06
-0.9999848894551062 -0.005497349657785981 -2.863384354650526e-06
-0.999985499028736 -0.005385325071837104 -2.473902049465539e-06
-0.9999860388562432 -0.005284135397693008 -2.387137488036638e-06
-0.999986515782806 -0.005193095960725306 -2.627918284478771e-06
-0.9999869392941135 -0.005110893380346366 -3.169348868590386e-06
-0.999987321030443 -0.005035649175503404 -3.967177974325363e-06
-0.9999876752115409 -0.00496481624291549 -4.969064066844906e-06
-0.9999880191296495 -0.004895054664879921 -6.081728375322165e-06
-0.9999883729686353 -0.004822227212672819 -7.228436513772491e-06
-0.9999887608266689 -0.004741112853069424 -8.322076442763153e-06
-0.9999892103089987 -0.004645339555627058 -9.273492656200127e-06
-0.9999897524706752 -0.004527124114575011 -1.00443252161957e-05
-0.999990420996021 -0.004376962874078405 -1.059240396291052e-05
-0.9999912493596078 -0.004183429889841619 -1.08888729700252e-05
-0.9999922670532109 -0.003932647161386677 -1.095827563144175e-05
-0.9999934911562065 -0.003607981207812568 -1.080860072105703e-05
-0.9999949132882724 -0.003189559166919644 -1.048335874204089e-05
-0.9999964791801356 -0.002653587693327724 -9.984290286854907e-06
-0.9999980559579786 -0.0019717998849255 -9.245362099198496e-06
-0.9999993831916314 -0.001110651876129588 -8.292567363383244e-06
-0.9999999995089065 -3.053585523934298e-05 -7.053231532301319e-06
-0.9999991351500663 0.001315169244243008 -5.383113495414713e-06
-0.9999955556714216 0.002981380122492759 -3.157498961300985e-06
-0.9999873370437674 0.005032469778130716 -2.159381348582256e-07
-0.9999715471762096 0.007543528734091231 3.500738879386672e-06
-0.9999437968005525 0.01060203634830836 8.084838928949793e-06
-0.9998976151452765 0.01430940386984278 1.369954449396626e-05
-0.9998235906932502 0.01878262696987058 2.042954816774422e-05
-0.9997082020993038 0.02415594855795329 2.836622348432332e-05
-0.9995322603977357 0.03058200461569532 3.765472053516063e-05
-0.9992688552905352 0.03823287198019733 4.844056948406493e-05
-0.9988807027186922 0.0473005074645283 6.107216325095239e-05
-0.9983168091544189 0.05799605827903011 7.605152363632222e-05
-0.9975083841116249 0.07054796114683323 9.383517013927367e-05
-0.9963640269184412 0.08519807885912449 0.0001149851376028716
-0.994764347954868 0.1021952660828507 0.0001401006118357927
-0.9925563263576843 0.1217863300762757 0.00016974654604152
-0.9895480292775971 0.1442035225010232 0.0002045754633104474
-0.985504628062835 0.1696483655910169 0.0002451918217418438
-0.9801468456931551 0.1982727303778451 0.0002920038908970599
-0.97315321556906 0.2301579887304838 0.0003453275787093125
-0.9641673832840406 0.2652943513051305 0.0004051873583655567
-0.9528110419039517 0.3035636611952264 0.0004711981062943806
-0.938702307688331 0.3447284191288798 0.000542757316754827
-0.9214785805701016 0.3884286838565641 0.0006189571616526892
-0.900823089260961 0.4341857597338851 0.0006984974210098067
-0.8764977236388426 0.4814053713098994 0.0007803396083666101
-0.8483948135564204 0.5293632886553029 0.0008654216362153363
-0.8166471258924051 0.5771365036451109 0.0009632922562066315
-0.7819087709355826 0.6233918529007023 0.00112768392514904
-0.7461536098618098 0.6657717597836095 0.001659627917792432
-0.7153945652022081 0.6987091421156412 0.004018806186873057
-0.8401044645695234 0.542412842130467 -0.003577331729540146
-0.8644542191634956 0.5027111730341393 -0.0006160171021221478
-0.8909999363712052 0.45400342552371 5.476536458288805e-05
-0.9146677352097231 0.404206487039158 0.0002236107745438297
-0.934308857838161 0.3564644194141372 0.0002754213004891629
-0.9500396383261798 0.3121291437331359 0.0002885159968378458
-0.9623762878260848 0.2717200765468221 0.0002839568160448748
-0.9719142468009752 0.2353351311109395 0.0002700560862344892
-0.9792093380957955 0.2028521854569772 0.0002510803099282258
-0.9847392283610255 0.1740362015098536 0.0002295451007113544
-0.9888974352343787 0.14859952790228 0.000207108876730683
-0.9920000989717742 0.1262369576801176 0.0001848124941199666
-0.9942970540627283 0.1066458701911941 0.000163258514021488
-0.9959834393472538 0.08953752356211718 0.0001428998878699459
-0.9972103170549584 0.07464293786828438 0.0001240384626869321
-0.9980937887766796 0.06171529316225039 0.0001067488152110107
-0.9987225190044897 0.05053040412778333 9.106046903990488e-05
-0.999163811777531 0.0408860771859542 7.698401259993553e-05
-0.9994684585726817 0.03260055464358706 6.446144098692716e-05
-0.9996745443599264 0.02551083113333706 5.341965826056087e-05
-0.9998104191838876 0.01947110112744994 4.3728973684936e-05
-0.9998970176723783 0.01435105621187789 3.514948650758007e-05
-0.999949653665579 0.01003440964538244 2.751648266874871e-05
-0.9999794067627561 0.006417602404406128 2.073125105990102e-05
-0.9999941911742102 0.003408430848507894 1.473051502031644e-05
-0.9999995722057125 0.0009249309972577995 9.541578068142108e-06
-0.9999993889473519 -0.00110547656867872 5.145721399635226e-06
-0.999996226962885 -0.002747008885212342 1.475895633605431e-06
-0.9999917732830105 -0.004056274655190417 -1.490383556396625e-06
-0.999987081205398 -0.005083051041804921 -3.796658560230101e-06
-0.999982764618205 -0.005871152871311002 -5.522065155002351e-06
-0.9999791407057423 -0.006458955635832853 -6.745294777424823e-06
-0.9999763328907303 -0.006879941850900638 -7.65084472938188e-06
-0.9999743434814173 -0.007163261076058659 -8.346492379767461e-06
-0.9999731043169361 -0.007334205097590411 -8.850785039163635e-06
-0.9999725109786487 -0.007414661273625451 -9.233266775597923e-06
-0.999972445720642 -0.00742345668386991 -9.504725022336834e-06
-0.9999727924872955 -0.007376597566116816 -9.669910108522542e-06
-0.999973444254117 -0.007287708324835055 -9.691741050271019e-06
-0.9999743074022616 -0.007168294420143589 -9.511725087800705e-06
-0.9999753037618335 -0.007027928793867941 -9.126681485908429e-06
-0.9999763696714918 -0.006874592777720952 -8.530156787300699e-06
-0.9999774556010752 -0.006714776979384308 -7.727654149732497e-06
-0.9999785237951162 -0.006553770121825882 -6.762388030713255e-06
-0.9999795466557088 -0.006395798449569203 -5.695185191147174e-06
-0.9999805053891199 -0.006244102862960039 -4.599648945121021e-06
-0.9999813876493533 -0.006101175469216682 -3.573088538191462e-06
-0.9999821869818459 -0.005968727817942911 -2.690599236148101e-06
-0.9999829011815635 -0.005847849208632276 -2.033758329420092e-06
-0.9999835316519825 -0.005739026227640849 -1.669291911607543e-06
-0.999984083097927 -0.005642122665567405 -1.62017824860524e-06
-0.9999845626317331 -0.005556482210980364 -1.913166952973307e-06
-0.9999849803568152 -0.005480789579833847 -2.522135462682614e-06
-0.9999853489109735 -0.005413127730252942 -3.402140772439202e-06
-0.9999856839679223 -0.005350872729914012 -4.49832576053854e-06
-0.9999860048023188 -0.005290573396313474 -5.712668313302915e-06
-0.9999863342417576 -0.005227932788584115 -6.963427721625531e-06
-0.9999866998466816 -0.005157524910708688 -8.157063541489111e-06
-0.9999871336546242 -0.005072715305571017 -9.199834575327593e-06
-0.9999876723348515 -0.004965387929167533 -1.005176543287465e-05
-0.9999883565137588 -0.004825631881019251 -1.067051647233282e-05
-0.9999892280401281 -0.004641517203633966 -1.103435046921758e-05
-0.9999903262584939 -0.004398552553732829 -1.117420801185117e-05
-0.9999916793157699 -0.004079359734608171 -1.110773182688064e-05
-0.9999932905306883 -0.003663164607883389 -1.089318265536921e-05
-0.9999951168112856 -0.003125098794144203 -1.054085664863017e-05
-0.99999703383324 -0.00243561590889032 -9.993280159014698e-06
-0.9999987836983875 -0.001559652416541025 -9.278182597109287e-06