# OOMMF: rectangular mesh v1.0
# Segment count: 1
# Begin: Segment
# Begin: Header
# Title: 
# Desc: time = 2.4086099868290936e-10
# Desc: stepsize = 3.9812930326039296e-13
# Desc: step = 560
# meshunit: m
# valueunit: (none)
# valuemultiplier: 800000.0000000002
# xmin: 0
# ymin: 0
# zmin: 0
# xmax: 4e-07
# ymax: 1e-07
# zmax: 4e-09
# ValueRangeMaxMag: 1
# ValueRangeMinMag: 0.9999999999999996
# meshtype: rectangular
# xbase: 2e-09
# ybase: 2e-09
# zbase: 1e-09
# xstepsize: 4e-09
# ystepsize: 4e-09
# zstepsize: 2e-09
# xnodes: 100
# ynodes: 25
# znodes: 2
# End: Header
# Begin: Data Text
-0.9439895314493965 0.3299669097857481 -0.002367057327655259
-0.9508475626669516 0.3096587881749175 0.0005894712533720372
-0.9591621014521532 0.2828547615961829 0.001116682701232354
-0.9672027833490534 0.2540029090142017 0.001139339355276943
-0.9742541200396797 0.2254501913216165 0.001058687279222114
-0.9801201591276313 0.1984025234648481 0.0009551724486453172
-0.9848466969600577 0.1734250913120965 0.0008492292122017202
-0.9885754601042516 0.1507249174251931 0.0007476274710831293
-0.9914728376294792 0.1303118792938491 0.0006529608356777928
-0.9936977725206293 0.1120911072412632 0.0005661845698356053
-0.9953893092501519 0.09591603295933809 0.0004874954852678759
-0.9966635251450167 0.08161889476838928 0.000416728082536228
-0.9976146773589221 0.06902775178669897 0.0003535552674529704
-0.9983179542563531 0.05797562984817425 0.0002975787579969084
-0.9988325873962252 0.04830528638073239 0.0002483204325537641
-0.9992048066834064 0.03987119472854312 0.0002052600668897405
-0.9994704179235203 0.03254006025208985 0.000167852833049201
-0.9996569563017674 0.02619067322995879 0.0001354741570674805
-0.9997854528116288 0.02071320311042216 0.0001075320977044064
-0.9998718545082073 0.01600836001963924 8.349730580185667e-05
-0.999928157054283 0.01198652487227383 6.286104587746584e-05
-0.9999633026097648 0.008566877395052975 4.522686658751016e-05
-0.9999838875739037 0.005676590164534627 3.02768182720135e-05
-0.9999947181995504 0.003250116979159977 1.768114233099069e-05
-0.9999992452057429 0.001228631983603957 7.16887409137994e-06
-0.9999999029492043 -0.0004405669826660688 -1.521606936505805e-06
-0.9999983717155861 -0.001804575167798571 -8.639429123223553e-06
-0.9999957795349134 -0.002905289204244468 -1.438751622943893e-05
-0.9999928558129074 -0.003779942529863646 -1.891074412685998e-05
-0.9999900468372763 -0.004461583581409978 -2.232324857342589e-05
-0.9999876023721326 -0.00497940647051073 -2.476357778545238e-05
-0.9999856392924197 -0.005359152346811449 -2.636387910210263e-05
-0.9999841882220413 -0.005623394036177079 -2.730235130121711e-05
-0.9999832266471695 -0.005791860766487241 -2.780606282777476e-05
-0.9999827021381754 -0.005881720693629531 -2.803774842768128e-05
-0.9999825480106862 -0.005907866388668769 -2.808538255270791e-05
-0.9999826933791622 -0.005883209731837758 -2.802511151686666e-05
-0.9999830697215397 -0.005818890827127269 -2.792539878742366e-05
-0.9999836143817475 -0.005724525509241719 -2.785157234167941e-05
-0.9999842730409603 -0.005608288183560629 -2.782789425555088e-05
-0.9999850005825685 -0.005477027654344943 -2.789181729632675e-05
-0.9999857607088153 -0.005336440082445168 -2.80509900630167e-05
-0.9999865248906923 -0.005191265631479394 -2.825208457001573e-05
-0.9999872713100614 -0.005045434480464794 -2.843872448225551e-05
-0.9999879842365277 -0.004902098325004875 -2.8540805183412e-05
-0.9999886531881077 -0.004763683489932616 -2.854192758935261e-05
-0.9999892720459213 -0.004631952500393516 -2.844471978936217e-05
-0.9999898380878904 -0.0045080950673594 -2.828105097573855e-05
-0.9999903511916366 -0.004392805193355795 -2.803854642543651e-05
-0.9999908132885198 -0.004286324041590439 -2.765456202490948e-05
-0.9999912281183615 -0.004188430681465982 -2.710641161743514e-05
-0.999991601103458 -0.004098417527994992 -2.638765575176826e-05
-0.9999919392815819 -0.004015061511664396 -2.555225970582281e-05
-0.9999922511959272 -0.003936615514079225 -2.462510072468101e-05
-0.9999925467555885 -0.003860812930846043 -2.359629022196199e-05
-0.9999928374862964 -0.003784768585585268 -2.242450987232218e-05
-0.9999931368687969 -0.003704830721667105 -2.108618191877655e-05
-0.9999934604705355 -0.003616438904278121 -1.964216532144073e-05
-0.9999938255873252 -0.003514037263149908 -1.814770267605945e-05
-0.9999942505605265 -0.003390953953229083 -1.664866620844801e-05
-0.9999947538284107 -0.003239149128591383 -1.511880009363956e-05
-0.9999953517771116 -0.003048973747746226 -1.353721652893277e-05
-0.9999960551434494 -0.002808835330450098 -1.190064835981578e-05
-0.9999968628394853 -0.002504837010255109 -1.013604494384736e-05
-0.9999977518821501 -0.002120416035276082 -8.153681900527519e-06
-0.9999986618389302 -0.001635935856221511 -5.850020048350859e-06
-0.999999471411807 -0.001028186004577258 -3.105849476385487e-06
-0.9999999636617494 -0.0002695856415576162 2.852073529801988e-07
-0.9999997738563464 0.0006725073262059574 4.599078203721295e-06
-0.9999983134333321 0.00183658057999031 1.011258617291245e-05
-0.9999946600215498 0.003267971039227032 1.713683779384938e-05
-0.999987399856927 0.005019905712821703 2.596182698222256e-05
-0.9999744044034609 0.00715466133545714 3.686621962659611e-05
-0.9999525175147188 0.009744752019757854 5.023991201705658e-05
-0.9999171194033406 0.01287438919977677 6.65346347126843e-05
-0.9998615277585159 0.01664084931316313 8.627017498520117e-05
-0.9997761873131799 0.02115568880143805 0.0001100584301344038
-0.9996475835895577 0.02654598673425372 0.0001386068628302921
-0.9994568181610042 0.03295510288052836 0.0001727009398788182
-0.9991777761858267 0.04054289245928834 0.0002131839114256305
-0.998774814794031 0.04948536299185076 0.0002611181981456679
-0.9981999393162522 0.05997316248473113 0.00031769578219203
-0.9973894711417829 0.07220869229019573 0.0003842047031335597
-0.9962602873006429 0.08640154156809429 0.0004621280092117436
-0.994705829981664 0.1027618901237723 0.000552936414230969
-0.9925922304580597 0.1214916913545829 0.000658001592915636
-0.9897550410520468 0.1427737806572137 0.0007786327159579043
-0.98599715239143 0.1667596374484092 0.0009158570116267159
-0.9810885584904958 0.1935564379503254 0.001070386389304226
-0.9747684390936934 0.223215022018441 0.001242615045324615
-0.9667496775165163 0.2557205682494321 0.001432478934877261
-0.9567256615825929 0.2909868050075495 0.001639445286542784
-0.9443788501281671 0.3288542510836794 0.001862518400628059
-0.929391089216714 0.3690904934076758 0.002100228713259492
-0.9114581628790998 0.411386061146817 0.002350747788079225
-0.8903169120961156 0.4553339117136291 0.002612446975944076
-0.8658092955864564 0.5003657942801217 0.002887142273358025
-0.8380548678616911 0.5455765652824489 0.003201541492552756
-0.8079863581134966 0.5891892551392713 0.003750564080048219
-0.7796275266167525 0.6262180778913372 0.005642575965245433
-0.9252002320037679 0.3794610023375919 -0.003725373152277188
-0.9365065901761099 0.3506496691253951 -0.0004648644598693341
-0.948451195049522 0.3169231482657641 0.0002206863148080058
-0.9591670469361216 0.2828399767003812 0.0003516418163500477
-0.9682145300311898 0.2501209525539106 0.0003645956750254486
-0.9755904410733843 0.2195977486254235 0.0003465326594265789
-0.9814645513066951 0.1916435050768995 0.0003185752462634182
-0.9860647626209755 0.1663616580856251 0.0002874651990303746
-0.9896214544734728 0.1436986824459477 0.0002559474677141707
-0.9923426902290992 0.1235149155602607 0.0002253508717058916
-0.9944056566551642 0.1056283647808203 0.0001963821303948588
-0.995956080056816 0.08984129276943241 0.0001694443205201279
-0.9971111944403332 0.0759555459424934 0.0001447838011343432
-0.997963916072805 0.0637809313035092 0.0001225507580185905
-0.998587090138618 0.05313956007811657 0.0001027773877067805
-0.9990373521832808 0.04386754663860629 8.540801264457685e-05
-0.9993584239396777 0.03581529779812024 7.031667591753137e-05
-0.9995838326992474 0.02884715111911392 5.725900676665609e-05
-0.9997391213820519 0.02284046986439783 4.598495428255665e-05
-0.9998436140190154 0.01768463146651088 3.62668961632083e-05
-0.999911816568635 0.01327999660496273 2.786726444145522e-05
-0.9999545226533783 0.009536886240426144 2.063712358742441e-05
-0.9999796816471551 0.006374643766834524 1.448101645689917e-05
-0.999993077725744 0.003720808336440542 9.269150995132276e-06
-0.9999988592497531 0.001510455263525127 4.908106608278731e-06
-0.9999999505486392 -0.0003144853743450253 1.291402329616101e-06
-0.9999983694987075 -0.001805823101872383 -1.68834227847344e-06
-0.9999954711559172 -0.003009593132012918 -4.103034676589478e-06
-0.9999921327605085 -0.003966658704020825 -5.984564142875061e-06
-0.9999888926055073 -0.004713237908231091 -7.350582908064709e-06
-0.9999860538830857 -0.005281284999625613 -8.251459868381244e-06
-0.9999837608391331 -0.00569894566425046 -8.737241404817183e-06
-0.9999820544724444 -0.005990880868511234 -8.915616436520551e-06
-0.9999809120831183 -0.006178623571228663 -8.954311242331898e-06
-0.9999802749404607 -0.00628089561131753 -8.962139312988959e-06
-0.9999800669353408 -0.006313925194048167 -8.979695733688685e-06
-0.9999802065837512 -0.006291769142757923 -9.042799409569361e-06
-0.999980614841258 -0.006226544575473201 -9.184168658925065e-06
-0.9999812192993752 -0.006128699654057932 -9.438461296501543e-06
-0.9999819570884243 -0.00600711257324597 -9.804931598902851e-06
-0.9999827759257742 -0.005869220193480007 -1.030062169789918e-05
-0.999983633689258 -0.005721209179112614 -1.091586412061588e-05
-0.9999844972339069 -0.005568227515824462 -1.158369165248882e-05
-0.9999853411909549 -0.005414540922351151 -1.223964400322389e-05
-0.9999861472319954 -0.005263571038113127 -1.280766217652041e-05
-0.999986903087362 -0.005117956406977872 -1.32650921810715e-05
-0.9999876015087239 -0.004979622841377585 -1.360832731027714e-05
-0.9999882391642289 -0.004849880514633515 -1.386429334115245e-05
-0.9999888157251899 -0.004729506105655707 -1.401884477745036e-05
-0.9999893332470672 -0.004618787269347409 -1.400877854134393e-05
-0.9999897958877753 -0.004517513645766622 -1.381251947240684e-05
-0.9999902097618243 -0.004424952004506527 -1.342609800505727e-05
-0.9999905828654559 -0.004339817255827642 -1.290702719464705e-05
-0.9999909249568938 -0.004260264418023675 -1.228594327803035e-05
-0.9999912474239854 -0.004183890745689319 -1.156069534331795e-05
-0.9999915635927675 -0.004107630555743435 -1.070091000711511e-05
-0.9999918891446135 -0.004027598664024586 -9.694761469352136e-06
-0.9999922423080327 -0.003938940152306961 -8.615610511531311e-06
-0.9999926435137358 -0.003835734825473195 -7.533831700061348e-06
-0.9999931146877916 -0.003710867090892985 -6.514790729249281e-06
-0.9999936782475102 -0.003555760694499744 -5.558601449995531e-06
-0.9999943547779921 -0.003360117599072286 -4.676220099771543e-06
-0.9999951590706933 -0.003111562301145299 -3.901861462547971e-06
-0.9999960932550527 -0.002795257474566531 -3.206609402605513e-06
-0.9999971355285985 -0.002393517927198241 -2.555354571055541e-06
-0.9999982226833209 -0.00188537172461747 -1.912769840903549e-06
-0.9999992237139265 -0.001246021672786216 -1.238848200233484e-06
-0.9999999005396685 -0.0004460050200157934 -4.179079578091504e-07
-0.9999998489976997 0.0005495489614158473 7.189913181636715e-07
-0.9999984126682362 0.001781756329691382 2.321546502893577e-06
-0.9999945581247053 0.003299045352654336 4.55374550004977e-06
-0.9999866960112708 0.005158269443814876 7.537019715890485e-06
-0.9999724272685686 0.007425939252299116 1.135023313224464e-05
-0.9999481875542104 0.01017948654387636 1.6147831111755e-05
-0.9999087516374356 0.01350880860282732 2.211326781742385e-05
-0.9998465524465215 0.01751772511057771 2.945768789276647e-05
-0.9997507594758457 0.02232526483696983 3.843732880138657e-05
-0.9996060440070895 0.02806696186183114 4.935931953262165e-05
-0.9993909594273532 0.03489564873429186 6.256426421488943e-05
-0.9990758589575384 0.0429816461025178 7.840009225928416e-05
-0.9986202721645006 0.05251230844302661 9.738625804776164e-05
-0.9979697045884617 0.0636902998112428 0.0001201398044556097
-0.9970518716021205 0.07673033053196066 0.0001473470870893677
-0.9957724705133721 0.09185398529008533 0.0001798722424705549
-0.9940107363538037 0.1092822411761898 0.0002185792248400402
-0.9916152064239404 0.1292254330744495 0.0002642641224539575
-0.9884003084739648 0.1518707650263881 0.0003177087826082975
-0.9841445033817031 0.1773681269176816 0.0003794961047812888
-0.9785908169139538 0.2058149910787913 0.0004499987967880189
-0.9714503817095962 0.237242229848367 0.0005293891327472235
-0.9624091750907021 0.2716030161333107 0.0006175180339757279
-0.9511377210374771 0.308766134706593 0.0007139173508712069
-0.9373029714957114 0.3485146636734085 0.0008178202248902092
-0.92058192220859 0.3905484130516979 0.0009282055469494516
-0.9006790289043992 0.4344838280019252 0.001044076923050062
-0.8773559608683404 0.4798386806163046 0.001165552742215562
-0.8505015482219195 0.5259709388061143 0.001299231900884224
-0.8203330777677168 0.5718840977153641 0.001490067256462808
-0.7880808044895686 0.6155684848257132 0.002021406552163936
-0.7588777467428572 0.6512183623111949 0.004382931348856618
-0.899731563631568 0.4364259007364454 -0.003942914084233541
-0.9156775026525099 0.4019131727431465 -0.0007160388257307372
-0.9324017203237913 0.3614236183563328 5.60802578853242e-06
-0.9470303659178273 0.321143980494294 0.0001726899709648033
-0.9591024108772482 0.2830592153849379 0.0002145579483551519
-0.9687817476814806 0.2479150600708265 0.000219884728778217
-0.9764016429793161 0.2159624664434566 0.000211364497127259
-0.9823205247496254 0.1872066985246708 0.0001966802308130649
-0.9868694198702154 0.1615200174140037 0.0001791636246374694
-0.9903338072902218 0.1387044496804719 0.0001605518333043593
-0.9929504946717436 0.1185297220326337 0.0001418661550430367
-0.9949111015906645 0.100756561142151 0.0001237677580895748
-0.9963681097447531 0.08515032880212173 0.0001067171849277321
-0.9974414188087232 0.07148851485279421 9.104384998224677e-05
-0.9982244536537289 0.05956453818231521 7.693400755113251e-05
-0.9987894837634211 0.04918905334049511 6.445978666863925e-05
-0.9991920572137708 0.04018992321737327 5.359751598659179e-05
-0.9994746065015496 0.03241155667114622 4.418965474679786e-05
-0.9996693469115842 0.0257137228953451 3.605867095770876e-05
-0.9998005734023323 0.01997029247183389 2.903371965204286e-05
-0.999886471389468 0.01506797287522816 2.292922436134932e-05
-0.9999405378199865 0.01090506822136317 1.764549091266612e-05
-0.9999726908524663 0.007390357023833849 1.31277413116986e-05
-0.9999901337781674 0.00444210086767948 9.284596904554934e-06
-0.9999980254287409 0.001987234740340314 6.058496955365537e-06
-0.9999999992165364 -3.944074131295319e-05 3.369625414980843e-06
-0.9999985618532512 -0.00169596289445646 1.135787430037197e-06
-0.9999953980080618 -0.003033803261004308 -6.86316691160767e-07
-0.9999916008355095 -0.004098567310326407 -2.106474830127678e-06
-0.9999878445475986 -0.004930592993462324 -3.127309407231071e-06
-0.9999845130072242 -0.005565404872180871 -3.783235563514535e-06
-0.9999817937738926 -0.006034244267712944 -4.106751613496492e-06
-0.9999797466927123 -0.00636444709268348 -4.193201515611215e-06
-0.9999783525737496 -0.006579845457017678 -4.201280981912571e-06
-0.9999775471362207 -0.006701134646694059 -4.227793084328891e-06
-0.9999772438999464 -0.006746233301305603 -4.302469560151105e-06
-0.999977348979795 -0.006730639458078796 -4.452666986515451e-06
-0.9999777706791562 -0.006667692662529136 -4.701340773446847e-06
-0.9999784246732533 -0.006568878309745121 -5.074458792438845e-06
-0.9999792375202975 -0.006443950445064487 -5.566496265852837e-06
-0.999980148003931 -0.006301076074911236 -6.191440090252421e-06
-0.9999811066846171 -0.006147050162415107 -6.936030608138195e-06
-0.999982074571181 -0.005987526747468227 -7.730802303585025e-06
-0.9999830217576385 -0.005827188342418934 -8.513728988934867e-06
-0.9999839265524987 -0.005669792923649041 -9.211370030069198e-06
-0.9999847743170162 -0.005518245926426406 -9.800063674591476e-06
-0.9999855562344983 -0.005374682952808007 -1.027313438851408e-05
-0.9999862680411075 -0.005240573985781555 -1.065448019069256e-05
-0.9999869089756536 -0.005116811297123719 -1.093010050154913e-05
-0.9999874810762874 -0.005003755478902224 -1.10366965722313e-05
-0.9999879888541615 -0.004901227136761927 -1.09527489791082e-05
-0.9999884391253769 -0.004808482260045462 -1.067457197331426e-05
-0.9999888409291845 -0.004724183723052734 -1.025944801858235e-05
-0.9999892054029302 -0.004646394598252945 -9.739248614213656e-06
-0.9999895456712868 -0.004572577507821873 -9.114155328436141e-06
-0.9999898772391443 -0.004499483233003461 -8.359213280626935e-06
-0.9999902185267586 -0.00442298485859795 -7.466308965972969e-06
-0.9999905911628313 -0.004337919251447826 -6.509916786924714e-06
-0.9999910196999385 -0.004237981658790192 -5.562028330998645e-06
-0.9999915309305232 -0.004115585646790963 -4.691670210916422e-06
-0.9999921528865586 -0.003961584283839183 -3.907288401047759e-06
-0.9999929124109516 -0.003764985715574465 -3.228697541565072e-06
-0.9999938308855572 -0.003512575058796197 -2.698761848830949e-06
-0.9999949166991814 -0.003188506001039712 -2.297535583831638e-06
-0.9999961527617333 -0.002773888555559403 -2.003284070572724e-06
-0.9999974770296399 -0.002246315005872513 -1.802520942677397e-06
-0.9999987529346619 -0.001579280311196813 -1.679034355450974e-06
-0.9999997252366899 -0.000741298976851068 -1.539854451173847e-06
-0.9999999535190021 0.0003048941667130686 -1.241009805303953e-06
-0.999998714813536 0.001603237610354515 -6.637856569959952e-07
-0.9999948624492868 0.003205475772569814 3.210209830379566e-07
-0.9999866233115804 0.00517234904701188 1.799614203022755e-06
-0.9999713100071855 0.007574902509843875 3.805127186420978e-06
-0.9999449172298813 0.01049583082690095 6.432605168108047e-06
-0.9999015590412353 0.01403111295663691 9.803287602196909e-06
-0.9998326950875942 0.01829157282048291 1.405811910470086e-05
-0.9997260827761576 0.02340425264498602 1.936927077973685e-05
-0.9995643732298189 0.02951377807361143 2.595189489193793e-05
-0.99932326793326 0.03678321638673401 3.405049274250003e-05
-0.9989691476600727 0.04539427381909376 4.390609096559754e-05
-0.9984560852936623 0.05554676059803446 5.592065198493854e-05
-0.9977222006118426 0.06745669293489648 7.060133885384078e-05
-0.9966853732715831 0.0813526820025423 8.852953048083334e-05
-0.9952384422497482 0.09747015371837742 0.0001104645186504653
-0.9932441890582457 0.1160429320642381 0.0001371858665514109
-0.9905306242205384 0.1372918561934402 0.0001694232270723799
-0.9868873428952504 0.1614104371203873 0.0002078984305348016
-0.9820638834919883 0.188548308541152 0.000253153914696724
-0.9757711640907067 0.2187933773628192 0.0003055343474036916
-0.9676868567676868 0.2521547419418014 0.0003651785007073473
-0.9574650405154999 0.2885489727164199 0.0004318969208853977
-0.9447498891588159 0.3277916895548739 0.0005051664733786229
-0.9291924167451853 0.3695958758385359 0.0005841458611183109
-0.9104696018141175 0.4135754565721476 0.0006677526349260368
-0.8883082291326607 0.4592471229791618 0.00075504341501083
-0.8625242757429399 0.5060149770638965 0.0008466056583001812
-0.8331137125480527 0.5531009290101735 0.000950942944371851
-0.8005066925316578 0.5993227689786994 0.001119730203995103
-0.7663622093169417 0.6424065878917447 0.001655283704263464
-0.7364407473842216 0.6764898985298223 0.004054969701393021
-0.8706793592104596 0.4918352962031527 -0.003936350291852238
-0.891052873168282 0.453898790070726 -0.0008158375327351063
-0.9128037545749226 0.4083984530014724 -9.602045692645509e-05
-0.9319071877109807 0.3626968229333927 9.014784429551149e-05
-0.9476237240638266 0.3193888770899834 0.0001509390724336097
-0.960158997517167 0.2794542361515602 0.0001714169662512029
-0.9699751266185723 0.243204077494132 0.0001744463022758765
-0.9775644874081658 0.2106362850299597 0.0001684849760065261
-0.9833739932470722 0.1815917525003986 0.0001575726515937159
-0.9877833284398331 0.1558334858867993 0.0001439885176929143
-0.9911038567672915 0.1330906774353302 0.0001291541907768831
-0.9935853658504316 0.1130845160282008 0.0001140286412267949
-0.995425299082027 0.09554299601954984 9.929282368679221e-05
-0.9967780638115393 0.08020900326139102 8.543964087397582e-05
-0.9977634115681514 0.06684436579504503 7.278283779459952e-05
-0.998473590277784 0.05523120256565976 6.148936945328735e-05
-0.9989792311252924 0.04517181773842283 5.159967192632156e-05
-0.9993340951109934 0.0364878678406819 4.300153838457328e-05
-0.999578860697912 0.02901895901394575 3.55472995431499e-05
-0.9997441083731206 0.02262116105183316 2.908437398700417e-05
-0.9998526615691207 0.01716550620995205 2.344570944676298e-05
-0.9999214146109664 0.01253651699604983 1.854753507314314e-05
-0.9999627531134374 0.008630885244202345 1.434208938370548e-05
-0.9999856548841172 0.005356296339860319 1.074722700630532e-05
-0.9999965403610729 0.002630438422781081 7.71938882582207e-06
-0.9999999277708073 0.0003800414235623688 5.186141290222737e-06
-0.9999989342623745 -0.001459953664393568 3.067927303762441e-06
-0.999995657240337 -0.002947117015303353 1.328120740088507e-06
-0.9999914618232811 -0.00413234564563365 -3.793026739283985e-08
-0.9999871953070537 -0.005060555391414789 -1.030765053806371e-06
-0.9999833463499954 -0.005771223426481199 -1.681242329891219e-06
-0.9999801610896771 -0.006299001745353622 -2.018644999664483e-06
-0.9999777275597719 -0.006674157611394881 -2.138364266678065e-06
-0.9999760355317396 -0.006923030939745285 -2.198106434452335e-06
-0.9999750180957321 -0.007068463708520451 -2.2893367457301e-06
-0.9999745797449829 -0.007130207423279735 -2.438260901816518e-06
-0.9999746146290709 -0.007125313348035269 -2.670832489633182e-06
-0.9999750183280482 -0.0070684305747396 -3.004870732581575e-06
-0.9999756942506111 -0.006972151463648842 -3.460636682216991e-06
-0.9999765578901542 -0.006847163931701296 -4.03126831710233e-06
-0.99997753857215 -0.006702412163269664 -4.730482041199902e-06
-0.9999785790373314 -0.006545336946679844 -5.543778757600832e-06
-0.9999796339816188 -0.006382129817217972 -6.401817272745847e-06
-0.9999806685401832 -0.006217917127024086 -7.247739783356817e-06
-0.9999816572831417 -0.006056817072838268 -8.012916395323591e-06
-0.9999825828694728 -0.005902023591615361 -8.673016509669379e-06
-0.9999834346140676 -0.005755902403469758 -9.21813716383005e-06
-0.9999842070497752 -0.005620102983063488 -9.669121745826784e-06
-0.9999848987374299 -0.005495652539864654 -1.001261831872142e-05
-0.9999855114779466 -0.005383003849819689 -1.018537134781375e-05
-0.9999860499418979 -0.005282027856345487 -1.016488924495053e-05
-0.9999865214811948 -0.005191989696471914 -9.946436052604036e-06
-0.9999869360416811 -0.005111521700184071 -9.585352417883647e-06
-0.9999873060397986 -0.005038618481851069 -9.113717233654916e-06
-0.9999876462864822 -0.004970633922680755 -8.533903343691531e-06
-0.9999879744815647 -0.004904164658899202 -7.826576030563773e-06
-0.9999883118979802 -0.004834875243604906 -6.986145818873015e-06
-0.9999886838131528 -0.004757332089018801 -6.085469329376906e-06
-0.9999891193312491 -0.004664889292779428 -5.196011321372341e-06
-0.9999896507753847 -0.004549540950789874 -4.38868357684042e-06
-0.9999903127684531 -0.004401631030127054 -3.677680631712077e-06
-0.9999911398189139 -0.004209545598026014 -3.08662314318245e-06
-0.9999921618780481 -0.003959315014878228 -2.660847083486816e-06
-0.9999933963222287 -0.003634185776224079 -2.382772645876163e-06
-0.9999948344916586 -0.003214184967144773 -2.235332635719228e-06
-0.9999964205412066 -0.002675612053050607 -2.217074999114832e-06
-0.9999980191020253 -0.001990423727692145 -2.325717456191871e-06
-0.9999993668257259 -0.001125318621959808 -2.47908134684528e-06
-0.9999999991609476 -4.088576899114408e-05 -2.541265654715535e-06
-0.9999991428106789 0.00130934034078457 -2.40391442856277e-06
-0.9999955595889551 0.002980066872483096 -1.951265073470673e-06
-0.9999873218017853 0.005035497439849416 -1.107156145949102e-06
-0.9999714929939816 0.007550708533999255 1.467422332930751e-07
-0.9999436798099144 0.0106130676372626 1.879883369400927e-06
-0.9998974070108398 0.01432394622460437 4.189613745506654e-06
-0.999823257209531 0.01880038008093572 7.192767139030103e-06
-0.9997077048002523 0.02417653493211116 1.103120939891188e-05
-0.9995315525976602 0.03060514841208486 1.588660741099018e-05
-0.9992678763125156 0.03825847470957433 2.19720662648939e-05
-0.9988793766557165 0.0473285328514047 2.949610588097526e-05
-0.998315039175136 0.05802655469203222 3.882420601554198e-05
-0.9975060498994649 0.07058100218658733 5.044108012568542e-05
-0.9963609827525957 0.08523372474457969 6.491877127582537e-05
-0.9947604040569146 0.1022337108265444 8.301299848459802e-05
-0.9925512360805123 0.1218278811268217 0.0001055234373267233
-0.9895414892962328 0.1442484773373245 0.0001332188296009511
-0.9854962845720546 0.1696969217481035 0.0001668648959457289
-0.9801363256143784 0.1983248353995753 0.0002070624929024148
-0.9731401867537011 0.230213188804114 0.0002542156812421388
-0.9641515996141922 0.2653518377322278 0.0003085020640774453
-0.9527923505116648 0.3036224630970656 0.0003697422443156759
-0.9386806664879705 0.344787492617567 0.0004373741991828792
-0.9214540599063767 0.388487007401404 0.0005104530893928283
-0.9007958499419575 0.4342424337698882 0.0005877422483126999
-0.8764680299775885 0.4814595995603325 0.0006681454995729375
-0.8483629884095351 0.5294144633790538 0.0007522379350663942
-0.8166134973648312 0.5771842644985091 0.0008489622450413818
-0.7818737103740223 0.6234360262262318 0.001011053511931177
-0.746117418074919 0.6658126106260559 0.001538173115085542
-0.7153574207638869 0.6987479023171188 0.003889674210637515
-0.8400742479337818 0.5424575087959199 -0.003887043788614179
-0.8644277505248866 0.5027562704395913 -0.0008925559682840732
-0.8909773843774176 0.4540476462956661 -0.0001882055811109705
-0.9146488039069302 0.404249385162393 1.03657489151537e-05
-0.9342930727093778 0.3565058856940439 8.804983956878621e-05
-0.9500265217412995 0.3121691731503465 0.00012378512183663
-0.9623653874842122 0.271758793085623 0.0001391150856986259
-0.9719051717622723 0.2353727188170756 0.0001426127815423426
-0.9792017891425295 0.2028887302736286 0.000138809306769296
-0.9847329802739397 0.1740716534364302 0.000130501769161077
-0.9888923127494489 0.148633709137492 0.0001195536589461148
-0.99199595191534 0.1262696316410205 0.0001072791635518052
-0.9942937378665372 0.1066768666752972 9.463472260601973e-05
-0.9959808138068437 0.08956680050143567 8.232006338237958e-05
-0.9972082504464557 0.07467061154119015 7.080666351975443e-05
-0.9980921653956198 0.06174160453533466 6.037619138338873e-05
-0.9987212470875121 0.05055559316146443 5.114740077795813e-05
-0.999162824617014 0.04091024381279688 4.306422135716341e-05
-0.9994677059952767 0.03262366281504847 3.601483937398082e-05
-0.9996739844119862 0.02553280238794809 2.986773397645837e-05
-0.9998100166395059 0.01949179387117213 2.447436276074933e-05
-0.9998967420638536 0.01437027555074414 1.97658009748517e-05
-0.9999494784292376 0.0100518825371163 1.570208203783638e-05
-0.99997930868833 0.006432887853573217 1.220954683861454e-05
-0.9999941482424011 0.003421022546934945 9.256795519852364e-06
-0.9999995634717076 0.0009343502767574474 6.778941620816753e-06
-0.9999993953128663 -0.001099705342897026 4.696859499944719e-06
-0.9999962318724521 -0.002745219852630662 2.976194998883761e-06
-0.9999917634076552 -0.004058708445057178 1.614216590768463e-06
-0.9999870462319659 -0.005089928083420327 6.10883322794092e-07
-0.999982697826809 -0.00588252046428891 -6.210557768622552e-08
-0.9999790388176122 -0.006474714296093617 -4.335285537661342e-07
-0.9999761958430992 -0.006899836722930211 -6.001585972018261e-07
-0.9999741743719928 -0.007186834388991758 -7.184543946276547e-07
-0.9999729091400764 -0.007360773408112565 -8.75497847625318e-07
-0.9999722982796811 -0.007443297122381814 -1.095310361487181e-06
-0.9999722256305121 -0.007453050757098371 -1.404134015399749e-06
-0.9999725750511839 -0.007406020672749664 -1.816222769312007e-06
-0.9999732382595565 -0.007315925039882459 -2.346694686253101e-06
-0.9999741199643675 -0.007194400083745917 -2.987152979073387e-06
-0.9999751401235575 -0.007051178682252355 -3.749927373746635e-06
-0.9999762336372698 -0.006894355610277812 -4.61942948108851e-06
-0.9999773487937353 -0.006730666303681586 -5.528119915404513e-06
-0.9999784456244437 -0.006565686958476764 -6.425311401514888e-06
-0.9999794947737017 -0.006403903466051953 -7.247726024672709e-06
-0.9999804759820865 -0.006248807175949222 -7.969752538877253e-06
-0.9999813764610577 -0.006103003971198952 -8.577606097782909e-06
-0.9999821892929741 -0.005968334291865859 -9.089030204646824e-06
-0.9999829121093087 -0.00584597291323286 -9.491251056950119e-06
-0.9999835462214492 -0.005736479049160312 -9.72075639735321e-06
-0.9999840962086255 -0.005639790306482895 -9.752787852107168e-06
-0.9999845697101262 -0.005555200254533128 -9.580468097054773e-06
-0.9999849773328155 -0.005481334053611258 -9.256413013710964e-06
-0.999985332538617 -0.005416145303906479 -8.813516184032202e-06
-0.9999856516170939 -0.005356910652835189 -8.257921664693823e-06
-0.9999859542911209 -0.005300109722772652 -7.576424896875606e-06
-0.9999862645707618 -0.005241242605141871 -6.765199640006827e-06
-0.9999866113555065 -0.005174656992316664 -5.894274746122439e-06
-0.999987028403266 -0.00509342712265979 -5.034993494735616e-06
-0.9999875538478181 -0.004989201468657814 -4.261662252992458e-06
-0.9999882294383663 -0.004851903935763843 -3.594285454963464e-06
-0.9999890982682479 -0.004669404170278869 -3.057900030146695e-06
-0.9999902003223213 -0.004427104250150833 -2.698380373738986e-06
-0.999991564196178 -0.004107496832258777 -2.500834529209335e-06
-0.9999931929951199 -0.003689709665451543 -2.45129801574669e-06
-0.9999950419885724 -0.003148966773225978 -2.556114900253e-06
-0.9999969841545941 -0.002455946607475919 -2.824379410863155e-06