# OOMMF: rectangular mesh v1.0
# Segment count: 1
# Begin: Segment
# Begin: Header
# Title: 
# Desc: time = 2.0112542908346963e-10
# Desc: stepsize = 3.351503615015471e-13
# Desc: step = 440
# meshunit: m
# valueunit: (none)
# valuemultiplier: 800000.0000000002
# xmin: 0
# ymin: 0
# zmin: 0
# xmax: 4e-07
# ymax: 1e-07
# zmax: 4e-09
# ValueRangeMaxMag: 1
# ValueRangeMinMag: 0.9999999999999996
# meshtype: rectangular
# xbase: 2e-09
# ybase: 2e-09
# zbase: 1e-09
# xstepsize: 4e-09
# ystepsize: 4e-09
# zstepsize: 2e-09
# xnodes: 100
# ynodes: 25
# znodes: 2
# End: Header
# Begin: Data Text
-0.943958981962283 0.3300562939225112 -0.002069592922951052
-0.9508214013749571 0.3097385084890588 0.0008479659989700497
-0.9591413261006625 0.2829242503220582 0.001336093396221328
-0.9671868641073916 0.2540626178504655 0.001325182658206108
-0.9742422113243612 0.2255008496102543 0.001216757523777168
-0.9801114355543309 0.1984449169526841 0.001090335393505602
-0.9848404334293164 0.1734600491114383 0.0009654247840380166
-0.988571034712554 0.1507534081828704 0.0008480852543103663
-0.9914697559134467 0.1303348575322121 0.0007402843967546704
-0.9936956611374557 0.1121094118037944 0.0006425119470109925
-0.9953878836250444 0.09593046213714564 0.0005545868811135811
-0.9966625860645371 0.08163003750953148 0.0004759362785222487
-0.9976140879792817 0.06903598130235286 0.0004058951673241967
-0.9983176089086988 0.05798132054521969 0.000343817757310193
-0.9988324095730265 0.04830873664033458 0.0002890514773126012
-0.9992047426750411 0.03987259878421605 0.0002410018626139092
-0.9994704253262774 0.03253965714936472 0.000199024399212668
-0.9996570043461332 0.02618868607053043 0.000162430335837178
-0.9997855206151729 0.02070979740332483 0.000130613019204183
-0.9998719269588177 0.01600372068736707 0.0001029748558179122
-0.9999282242929831 0.0119808192098722 7.895151713887431e-05
-0.9999633584697949 0.008560276591434874 5.815914384911394e-05
-0.9999839284372992 0.005669324977655954 4.026665637915825e-05
-0.9999947428248528 0.003242483698121012 2.494240507765302e-05
-0.9999992544743433 0.001221027414078092 1.195037343643879e-05
-0.9999998998369221 -0.0004475768844534977 1.03817987566251e-06
-0.9999983613050518 -0.001810337945266048 -7.983387834434648e-06
-0.9999957682074406 -0.002909181019213865 -1.526458924783495e-05
-0.9999928500987042 -0.003781442740221241 -2.103028377442347e-05
-0.9999900523756593 -0.004460324937186082 -2.551823224951389e-05
-0.9999876235444179 -0.004975130093308285 -2.89575828470008e-05
-0.9999856787700746 -0.005351752716985391 -3.158495394443561e-05
-0.9999842465960975 -0.005612970208205093 -3.354215957242845e-05
-0.9999833024351443 -0.005778722168160565 -3.494289280385941e-05
-0.9999827916259142 -0.005866443743698088 -3.591441428862661e-05
-0.9999826460334899 -0.005891205279475453 -3.649952059566647e-05
-0.9999827944167864 -0.005865962778190298 -3.675703303578391e-05
-0.999983168453568 -0.005801850217129163 -3.665543178688521e-05
-0.9999837065680717 -0.005708352675375537 -3.616785395701049e-05
-0.9999843557478344 -0.00559347926152822 -3.534598739769915e-05
-0.9999850719549199 -0.005463945324940643 -3.418770692000568e-05
-0.999985819971004 -0.005325296722991339 -3.273729447111361e-05
-0.9999865720220482 -0.005182162922762538 -3.103280324441111e-05
-0.9999873072879711 -0.005038294674596222 -2.915003216451337e-05
-0.9999880109052864 -0.004896662709147184 -2.72029615538436e-05
-0.9999886725932887 -0.00475962672962876 -2.526868628291061e-05
-0.9999892862961469 -0.004628902976997776 -2.345532177540699e-05
-0.999989848909145 -0.004505729817905004 -2.185115133501295e-05
-0.9999903601071976 -0.004390816652024291 -2.053789702218197e-05
-0.999990821785587 -0.004284385753700022 -1.957803559385516e-05
-0.9999912374637955 -0.004186243528027988 -1.899343992154331e-05
-0.9999916125699733 -0.004095660661949904 -1.880017410307481e-05
-0.9999919537821332 -0.004011484921581172 -1.896615880088898e-05
-0.9999922694083943 -0.003932015428886187 -1.944520774396895e-05
-0.9999925693409286 -0.003854978166863359 -2.015591083567813e-05
-0.999992864980807 -0.003777505343193906 -2.099664569654787e-05
-0.999993169692452 -0.003695955857587748 -2.188015764370688e-05
-0.9999934983848379 -0.003605922105852031 -2.266757775696875e-05
-0.9999938678010265 -0.003501973741986393 -2.324333959393341e-05
-0.9999942959274267 -0.003377508073935846 -2.349084839547864e-05
-0.9999948006555054 -0.00322461130764519 -2.332101998116928e-05
-0.999995398000038 -0.003033721243275798 -2.267516221963117e-05
-0.9999960983141422 -0.002793366709979548 -2.142231918496927e-05
-0.9999969003953287 -0.002489742631377827 -1.952853777254173e-05
-0.9999977814832166 -0.002106357145148554 -1.697709163516634e-05
-0.9999986818170927 -0.001623630507086688 -1.371323532506388e-05
-0.9999994815780979 -0.001018209304490374 -9.661619151511176e-06
-0.9999999655804547 -0.000262330821388534 -4.650711447657027e-06
-0.9999997709614082 0.0006768124437522262 1.43061080247717e-06
-0.9999983109651671 0.001837930912833857 8.761994303486898e-06
-0.9999946647986537 0.003266506244835021 1.764029866372651e-05
-0.9999874199517234 0.005015887921210329 2.840170978540217e-05
-0.9999744480424202 0.007148534151447804 4.14938877076634e-05
-0.9999525914314187 0.009737124743470254 5.737002431813842e-05
-0.9999172273348401 0.01286594857779701 7.646043704134051e-05
-0.9998616705821762 0.01663219278126691 9.931720135004726e-05
-0.9997763635829502 0.02114726456282961 0.0001265794697788877
-0.999647790091301 0.02653809531264927 0.0001589426137004342
-0.9994570519959589 0.03294787266062802 0.0001972376370928812
-0.9991780345528837 0.04053636082638339 0.0002423179505834002
-0.9987750941098451 0.04947953375018944 0.0002951706850791823
-0.9982002371495973 0.05996798421735636 0.0003569641363586225
-0.9973897871571883 0.07220407523941172 0.0004289444714588786
-0.9962606189672045 0.08639743291491218 0.0005125239462805427
-0.9947061761510518 0.1027582212617807 0.0006091716236875542
-0.992592586509727 0.121488429872908 0.000720147863471125
-0.9897553931702853 0.1427709531382231 0.0008465402156839353
-0.9859975037518692 0.1667571405281801 0.000989281530606348
-0.9810889161603145 0.1935541742898176 0.001149000594359915
-0.9747687667233206 0.2232131115855134 0.001325985297543543
-0.9667499147495231 0.2557191657956958 0.001520058072215899
-0.9567257074591483 0.2909861265300573 0.001730564597175323
-0.9443785223101968 0.3288546471215772 0.001956442115648624
-0.9293902143834254 0.3690921378941047 0.002196167819015948
-0.9114566310240032 0.4113888881541545 0.002447951319427745
-0.8903146709375168 0.4553377206340654 0.00271051308695258
-0.865806397469534 0.5003702278067004 0.002986172382410074
-0.8380514261609752 0.5455812519423416 0.003302217222121526
-0.8079824851167847 0.5891938970188481 0.003854278174597224
-0.7796233822732191 0.6262222534483766 0.005750747682050662
-0.9251657745030584 0.379547718906291 -0.003437842519201484
-0.9364772283138475 0.3507283205034372 -0.0002145843694761268
-0.9484278960819066 0.3169926464328169 0.0004336371371414009
-0.9591491775789938 0.282900285421291 0.0005325956172069324
-0.9682011494662484 0.2501724700379795 0.000519044633195855
-0.9755806367919911 0.2196410518238376 0.0004790305321126657
-0.981457517039182 0.1916793023148722 0.0004327948327874831
-0.9860598027127141 0.1663908535477965 0.0003864321396078012
-0.9896180117472066 0.143722210467399 0.0003421167484257456
-0.9923403410589351 0.123533627217258 0.0003007550230457026
-0.9944040784724564 0.1056430769069861 0.0002627146148795322
-0.9959550476998673 0.08985260690847613 0.0002280195284313939
-0.9971105534222529 0.07596384407606618 0.0001965887982103814
-0.9979635476646871 0.0637865910505073 0.0001683290421121827
-0.9985869083380103 0.05314288303094915 0.000143105180004467
-0.9990372962932683 0.04386873629462118 0.0001207929997431371
-0.9993584463076417 0.0358145997920288 0.0001011697211817937
-0.999583898893372 0.02884479206272373 8.392843860127359e-05
-0.9997392078940217 0.02283662552391376 6.88049009953175e-05
-0.9998437038726342 0.01767950070981723 5.550588619507055e-05
-0.9999118988120201 0.01327375985592738 4.374274296480861e-05
-0.999954590527102 0.009529730817586341 3.33814301254806e-05
-0.9999797312985245 0.006366820321935637 2.43129302729143e-05
-0.9999931080090401 0.003712635900224053 1.640404370673204e-05
-0.9999988714096293 0.00150236060787237 9.59536911211094e-06
-0.9999999481830762 -0.000321899819529973 3.788200765128593e-06
-0.9999983585619946 -0.001811869800476022 -1.068684164436425e-06
-0.9999954590421637 -0.003013614124512255 -4.996024320949624e-06
-0.9999921270299124 -0.003968099356529329 -8.104803671743674e-06
-0.9999888997881672 -0.004711707703283666 -1.053418875724417e-05
-0.9999860790078371 -0.005276517430217446 -1.242335424396543e-05
-0.9999838069588199 -0.005690837032521735 -1.392891856031569e-05
-0.9999821222627322 -0.005979542313159184 -1.512106474977365e-05
-0.9999809998343373 -0.006164390705287161 -1.604840235693577e-05
-0.999980378400504 -0.006264386027900369 -1.678325271800542e-05
-0.9999801801858749 -0.006295945938993526 -1.73250713825526e-05
-0.9999803233006626 -0.006273172913281017 -1.769469968326591e-05
-0.9999807289349417 -0.006208175333493091 -1.782612800802251e-05
-0.9999813258865192 -0.006111265522381461 -1.76622046411336e-05
-0.9999820527629129 -0.00599114806701256 -1.723106734848245e-05
-0.9999828585208804 -0.005855116712049782 -1.651352493220633e-05
-0.9999837022882293 -0.005709195788551284 -1.55361988440522e-05
-0.9999845518101641 -0.005558411274474382 -1.432231795764679e-05
-0.9999853828539419 -0.005406839291372662 -1.293570838484755e-05
-0.9999861780681133 -0.005257712519121962 -1.148013361202427e-05
-0.9999869254245846 -0.005113597498195748 -1.002558476235345e-05
-0.9999876177542782 -0.004976370454985848 -8.672817064863273e-06
-0.9999882513178102 -0.004847387957227975 -7.505978091054753e-06
-0.9999888255779837 -0.004727438582941017 -6.603717950720105e-06
-0.9999893425563472 -0.004616788646758525 -6.026227862415083e-06
-0.9999898061698199 -0.004515254461238002 -5.79618142576823e-06
-0.9999902225241143 -0.004422083332909352 -5.930356673655833e-06
-0.9999905992040337 -0.004336065334487056 -6.400949596917784e-06
-0.9999909456995892 -0.004255404500703577 -7.167696337460883e-06
-0.9999912733701989 -0.004177692774531044 -8.156550855744031e-06
-0.9999915954010713 -0.004099883064394568 -9.277817193454578e-06
-0.9999919273335153 -0.004018103837314645 -1.045722570497167e-05
-0.9999922866470532 -0.003927659920821149 -1.157340335570137e-05
-0.9999926931303773 -0.00382276455230588 -1.253124215897425e-05
-0.9999931682779495 -0.00369637961039736 -1.323646751418406e-05
-0.9999937338655682 -0.003540062690468875 -1.362888354330628e-05
-0.9999944100213189 -0.003343611658832702 -1.368168945606759e-05
-0.9999952110513569 -0.003094785521705746 -1.330137928925459e-05
-0.9999961389109162 -0.002778849951674137 -1.249820924812344e-05
-0.999997172022802 -0.002378196493447332 -1.130648432784715e-05
-0.9999982479237114 -0.001871912049773294 -9.735755137865809e-06
-0.999999237295031 -0.001235050087163203 -7.787055819105167e-06
-0.9999999040835796 -0.0004379542300576508 -5.378085802879245e-06
-0.9999998463021296 0.000554427125830795 -2.505767152259738e-06
-0.999998409646223 0.0017834528996671 8.824411268794815e-07
-0.9999945625218318 0.003297711694238409 4.934712767596104e-06
-0.9999867170273528 0.005154189808261429 9.812103329379726e-06
-0.9999724743681319 0.007419586081563254 1.576241412301841e-05
-0.99994826866612 0.01017150246071728 2.300695920611515e-05
-0.9999088714450186 0.01349991852933624 3.170567857379487e-05
-0.9998467125175799 0.01750856062790849 4.210137969868915e-05
-0.9997509589350089 0.02231629764812933 5.447761298692079e-05
-0.9996062800631217 0.02805851171429303 6.912847709710147e-05
-0.9993912297048456 0.03488785629825905 8.644043219117516e-05
-0.9990761615042701 0.04297455192531881 0.0001067741111776056
-0.998620604283963 0.05250592013004322 0.0001305788259365655
-0.9979700650406562 0.06368456780655588 0.0001584488563707027
-0.9970522620893886 0.07672515996381526 0.0001910260706508503
-0.9957728909018499 0.09184931820815445 0.000229106240391261
-0.9940111884367689 0.1092780052523931 0.000273551786123621
-0.9916156895345357 0.1292215872620844 0.0003250452496779251
-0.988400813405819 0.1518673252766445 0.0003841510545002786
-0.9841450396176891 0.1773649832245432 0.0004513553523620546
-0.9785913991328772 0.2058120401779656 0.0005269354239116818
-0.9714509790907682 0.2372395876766621 0.0006109522035900929
-0.962409728910647 0.2716008455129446 0.0007031463487834276
-0.9511381264538411 0.3087646672054346 0.0008029267672827141
-0.9373030375934106 0.3485142588279944 0.0009094568372500271
-0.9205814699712576 0.390549245734048 0.001021666346855283
-0.9006779486474635 0.4344858299172318 0.001138604993353095
-0.8773542029564589 0.4798416541374603 0.001260757416003499
-0.8504991694692072 0.525974539241619 0.001395278379019468
-0.8203301966856843 0.5718879673713723 0.001587822869928702
-0.7880775255300494 0.6155723417485827 0.002122693713161975
-0.758874176545396 0.6512217941486448 0.00448987732204387
-0.8996935480894217 0.4365066980563299 -0.003663615458365648
-0.9156448401254348 0.4019879408374517 -0.0004713522377176143
-0.9323755506838124 0.3614910594745177 0.0002154229507525949
-0.9470101420796104 0.3212034660930865 0.0003523750033218326
-0.9590871874376496 0.2831106333268296 0.0003690395908408119
-0.9687705578906498 0.2479586283608858 0.0003532500907817414
-0.9763936037862533 0.2159986657400508 0.0003269308953036782
-0.982314858795458 0.1872362941509607 0.0002972242817013256
-0.9868654947462223 0.1615438764065471 0.0002669734818660011
-0.9903311360708713 0.1387234100557082 0.0002375522944322966
-0.9929487062001739 0.1185446029301204 0.0002096939204103379
-0.9949099373993366 0.1007679647129812 0.0001837162233459379
-0.996367392592001 0.08515863699467136 0.0001597642842475265
-0.9974410132347291 0.07149409831207854 0.0001379268620558894
-0.9982242614102821 0.05956769220060894 0.0001182277055249715
-0.9987894348433768 0.04918998587332995 0.0001006728801964652
-0.9991920967998478 0.04018888457278806 8.51441027747183e-05
-0.9994746950465087 0.0324087775207673 7.14233689151498e-05
-0.9996694571894824 0.02570939212944692 5.931963707154528e-05
-0.999800685830764 0.01996462497602381 4.859938772810844e-05
-0.9998865734614764 0.01506116490126838 3.90292686550653e-05
-0.9999406218812348 0.01089732902409259 3.05272023550666e-05
-0.9999727526727008 0.007381963278445561 2.302904129093794e-05
-0.9999901723143295 0.004433396494712053 1.644012182881053e-05
-0.9999980423615096 0.001978675809308331 1.073265083389992e-05
-0.9999999988684058 -4.721424846945645e-05 5.831184969322468e-06
-0.9999985512123115 -0.001702225124792137 1.703670728291899e-06
-0.9999953856920921 -0.003037859741824343 -1.646930377534972e-06
-0.9999915956574469 -0.00409982876398703 -4.310342716352637e-06
-0.999987854126095 -0.004928646792369984 -6.409596539879608e-06
-0.9999845431598732 -0.005559979878880478 -8.06756516255157e-06
-0.9999818480292562 -0.006025240505411106 -9.42576251612761e-06
-0.9999798258525737 -0.006351989987107638 -1.053846875876771e-05
-0.9999784546732184 -0.006564301833846488 -1.143659244666893e-05
-0.9999776672964187 -0.00668316991252902 -1.217921268191551e-05
-0.9999773753200976 -0.006726714287104294 -1.27604118374732e-05
-0.9999774843999552 -0.006710478300913274 -1.31950736192011e-05
-0.9999779031116801 -0.006647789748815987 -1.340979480217424e-05
-0.9999785484747495 -0.006549993311935397 -1.33396533614139e-05
-0.9999793487255465 -0.00642665956723496 -1.300915975728618e-05
-0.9999802440763642 -0.006285801715075556 -1.240053841337423e-05
-0.999981186539377 -0.006134038980801168 -1.153608847964076e-05
-0.99998213817625 -0.005976890457462034 -1.043621465287517e-05
-0.9999830703742574 -0.005818838449402157 -9.163629227601921e-06
-0.9999839625396765 -0.005663444382873308 -7.821037292411923e-06
-0.9999848003224892 -0.005513536251748954 -6.480096550135982e-06
-0.9999855750072613 -0.005371196322975638 -5.239883937630405e-06
-0.999986281903786 -0.00523793725831296 -4.185638953280975e-06
-0.9999869200441999 -0.005114658246535727 -3.396426070386599e-06
-0.999987491437941 -0.005001695618573035 -2.931300931864441e-06
-0.9999880003346054 -0.004898895679337037 -2.814153474281948e-06
-0.9999884535199837 -0.004805498657693417 -3.059740985083213e-06
-0.9999888595603903 -0.004720248070881708 -3.641254451593516e-06
-0.999989229288943 -0.004641259062289774 -4.519066283880054e-06
-0.9999895757913086 -0.004565991365133196 -5.618856499893927e-06
-0.9999899144226017 -0.004491214322403584 -6.854739195525051e-06
-0.9999902634450583 -0.004412816401848528 -8.153890296968289e-06
-0.9999906436403057 -0.004325799750979514 -9.400085960585284e-06
-0.9999910788150198 -0.004224000478851788 -1.050365988646789e-05
-0.9999915952319157 -0.004099919043134503 -1.137398338241698e-05
-0.9999922201573633 -0.00394455088795008 -1.195989653518095e-05
-0.999992979852354 -0.003747011627782441 -1.224214658541767e-05
-0.9999938950521496 -0.003494239706751838 -1.213678907632103e-05
-0.9999949738601915 -0.003170507576938892 -1.166442618078019e-05
-0.9999961993837788 -0.002757009223980172 -1.086906570544252e-05
-0.9999975103782941 -0.002231399024679906 -9.777806650268293e-06
-0.9999987721929249 -0.001567016876222713 -8.411417307978779e-06
-0.9999997319401882 -0.0007321711269200331 -6.707645303533768e-06
-0.9999999517520164 0.0003106025899880409 -4.689984095987632e-06
-0.9999987111647596 0.001605510309971186 -2.337469708871177e-06
-0.9999948656567664 0.00320447497924242 4.611610526692853e-07
-0.9999866438184998 0.005168381758664533 3.822245547803823e-06
-0.9999713586885951 0.007568470076564357 7.948904041733019e-06
-0.9999450034397525 0.0104876082388257 1.301160183064475e-05
-0.9999016886233538 0.01402186589031772 1.910808482617922e-05
-0.9998328704419372 0.01828197161834373 2.641177621229027e-05
-0.9997263037176967 0.02339479474948019 3.51223710152156e-05
-0.9995646374189606 0.02950480565257773 4.544122379147945e-05
-0.9993235734457663 0.03677488587431016 5.765861275604188e-05
-0.9989694932764329 0.04538663145609775 7.202842806718486e-05
-0.9984564687157425 0.0555398251596977 8.888711560458646e-05
-0.9977226208682746 0.06745042614971447 0.000108719650708643
-0.9966858330759671 0.0813469895308898 0.000132060312879766
-0.9952389428768853 0.09746497374455429 0.000159606618624988
-0.9932447346486247 0.1160381841294497 0.0001921372500733685
-0.9905312186104996 0.1372874791730127 0.000230261411228174
-0.9868879828752106 0.161406424636416 0.0002744860408203991
-0.9820645859160559 0.1885445393038584 0.0003252510120406308
-0.9757719522296796 0.2187897408851788 0.0003827862008147543
-0.9676877070446095 0.2521513468680684 0.0004471100140690343
-0.9574658979304765 0.288545986032724 0.0005179233423861102
-0.9447506473622554 0.3277893543025268 0.0005945708800469421
-0.929192878489036 0.3695945581441248 0.0006761327591889395
-0.9104695842755728 0.4135753332215209 0.0007614852415671684
-0.8883076265344592 0.459248123100004 0.0008497469263289801
-0.8625230459002933 0.5060169049773199 0.0009418959890822525
-0.8331119210334327 0.5531034538965925 0.001047052836740195
-0.8005044669110335 0.5993255506482837 0.001217700953853211
-0.7663596522751833 0.6424093675586113 0.001757224403703924
-0.7364379555476631 0.6764922803377952 0.004163204552659092
-0.8706398899007374 0.4919072626653606 -0.003664294025183768
-0.8910184512666693 0.4539667260655458 -0.0005754369429076
-0.9127756834963771 0.4084611841734905 0.0001124335839783942
-0.9318851760467421 0.3627532844620102 0.0002706960578853566
-0.9476069792053635 0.3194384420166007 0.0003077714932619755
-0.9601466045825073 0.2794966955736417 0.0003080131437943955
-0.9699661888986928 0.2432396064607613 0.0002936701527390254
-0.9775581804291349 0.2106654443796933 0.0002728009986067629
-0.9833696272333415 0.1816152917610588 0.0002490652603346925
-0.9877803623109614 0.1558521910385763 0.0002244577933303296
-0.9911018757641471 0.1331053409394475 0.0002001753788135212
-0.9935840814303313 0.1130957198295413 0.0001768741987504862
-0.995424513664965 0.09555110459527974 0.0001549370510904848
-0.9967776268680938 0.08021436561667954 0.000134625125065377
-0.9977632136616065 0.0668472586274366 0.0001160933246687509
-0.9984735526970403 0.05523182665510366 9.944290199866134e-05
-0.9989792920304105 0.0451704209976146 8.462456720927855e-05
-0.9993342097657324 0.03648468287080156 7.14682833679669e-05
-0.9995789981619657 0.02901418370220762 5.981316752193775e-05
-0.9997442465042651 0.02261502015374218 4.94475935800776e-05
-0.9998527862946295 0.01715820871554997 4.015643348457865e-05
-0.9999215173505017 0.01252829292133665 3.187392385122721e-05
-0.9999628292594981 0.008622035521277166 2.455218102829749e-05
-0.9999857035346378 0.005347186032634922 1.810711032296055e-05
-0.999996563665806 0.002621545339970801 1.251437068442322e-05
-0.9999999307648952 0.0003720361613065092 7.70057120887321e-06
-0.9999989249641216 -0.001466307405736139 3.632164097434413e-06
-0.9999956455312202 -0.002951087680712313 3.136893135985059e-07
-0.9999914578226744 -0.004133312981658231 -2.340396927914235e-06
-0.9999872077792183 -0.005058088383966556 -4.452163035206326e-06
-0.9999833819512847 -0.005765048440800199 -6.143753762368038e-06
-0.9999802238632947 -0.006289024189442152 -7.553748763003336e-06
-0.9999778184580419 -0.00666051917501087 -8.730096545642431e-06
-0.9999761523357051 -0.006906132484691165 -9.69443736307693e-06
-0.9999751553055546 -0.007049018470235709 -1.049942077346865e-05
-0.9999747296990862 -0.007109137721054773 -1.114010497958253e-05
-0.9999747691502368 -0.007103585548554271 -1.163119329422223e-05
-0.99997516952798 -0.00704699836359729 -1.189750736146237e-05
-0.9999758357016264 -0.006951825078397051 -1.187066678125562e-05
-0.9999766850447929 -0.00682856008591332 -1.157498385625109e-05
-0.9999776485038023 -0.006685983237049269 -1.099813996110456e-05
-0.999978670471768 -0.006531347354498842 -1.016119956110639e-05
-0.9999797068701884 -0.006370695822937717 -9.085319479456096e-06
-0.9999807242910275 -0.006208943951825695 -7.835474785191218e-06
-0.9999816985283537 -0.006050005445507822 -6.515939201302539e-06
-0.9999826125832861 -0.00589699110038791 -5.202585802209055e-06
-0.9999834558940013 -0.005752210213448049 -3.993764705459431e-06
-0.9999842225541543 -0.005617351146326882 -2.976885844647235e-06
-0.9999849109212769 -0.00549344379976986 -2.232496814649737e-06
-0.9999855227733713 -0.005380914453703449 -1.819044615987814e-06
-0.9999860625026694 -0.005279658824362747 -1.762152961671739e-06
-0.9999865374062584 -0.005188930712519218 -2.074029663261968e-06
-0.9999869568999209 -0.005107447757066083 -2.728322716198895e-06
-0.9999873330659245 -0.005033258797287465 -3.684911369651269e-06
-0.9999876806737429 -0.004963716053289316 -4.867301422504885e-06
-0.9999880172791024 -0.004895432552918059 -6.191044465773424e-06
-0.9999883639867477 -0.004824088891522881 -7.581183209433345e-06
-0.9999887451281794 -0.004744421707645682 -8.92349554015776e-06
-0.9999891889446901 -0.004649934529163069 -1.012991431067005e-05
-0.9999897271158545 -0.004532718759701076 -1.110872679195267e-05
-0.9999903933627486 -0.004383268491509989 -1.181298558132186e-05
-0.9999912214615362 -0.004190089546262953 -1.222532796582574e-05
-0.9999922405126082 -0.003939386262116819 -1.226586990017295e-05
-0.9999934674564587 -0.003614540276470431 -1.195816519568665e-05
-0.9999948937735981 -0.003195668624131086 -1.134788263145846e-05
-0.9999964644347968 -0.002659136747002321 -1.047216606866681e-05
-0.999998046196294 -0.001976743775584557 -9.361626095569682e-06
-0.9999993783884886 -0.001114970515383653 -7.96150117941481e-06
-0.9999999993957319 -3.418732892756637e-05 -6.305729517884779e-06
-0.999999138842192 0.001312362615727618 -4.386226764570012e-06
-0.9999955610358214 0.002979581214173122 -2.107204493457502e-06
-0.9999873402693716 0.005031828752220279 6.29037610799909e-07
-0.999971540739808 0.007544381641613605 4.012440238738247e-06
-0.9999437676706104 0.01060478332979515 8.19952684068105e-06
-0.9998975421133064 0.01431450661891 1.326745635019994e-05
-0.999823442901172 0.01879049361246519 1.93661220979994e-05
-0.9997079417230573 0.02416672391870994 2.666241961822064e-05
-0.9995318390598473 0.03059577516337167 3.532409263428111e-05
-0.999268211053378 0.03824970977351711 4.561164965924732e-05
-0.9988797594010936 0.0473204281919523 5.774550291243979e-05
-0.9983154681140202 0.0580191428410654 7.202966070389559e-05
-0.9975065242024006 0.070574260643717 8.892827259639977e-05
-0.9963615057716347 0.08522756562929593 0.000108965061486018
-0.9947609780906203 0.1022280725683658 0.000132842572695758
-0.9925518676897519 0.1218226740319182 0.0001613607700154923
-0.9895421879158113 0.1442436142345881 0.0001951597601521558
-0.985497055241361 0.1696923657196492 0.0002347915549325629
-0.98013719535822 0.1983204463911221 0.0002807464127896698
-0.9731411906512073 0.2302088442568117 0.0003332925038453889
-0.9641527255873396 0.2653476355755969 0.0003924754058477865
-0.9527935530469303 0.3036185691055457 0.0004580027369138173
-0.9386818453397681 0.3447841545254148 0.0005291670077605719
-0.9214550189205408 0.3884845970729633 0.000604932395220464
-0.900796407613244 0.4342411359359051 0.0006840264386597292
-0.876468090420446 0.4814593446955447 0.0007654280325360487
-0.8483625257663497 0.5294150566168805 0.0008501192175932131
-0.8166125955764449 0.5771853866861357 0.0009477034753374284
-0.7818725116319886 0.6234373580956184 0.001111793614381958
-0.746116018233159 0.6658139284752023 0.00164316289953176
-0.7153558929980669 0.6987488361468275 0.004001291840354909
-0.840035701125078 0.5425190306834297 -0.003622455190909202
-0.8643935270988415 0.5028154723176368 -0.000656587858333283
-0.8909488505559895 0.4541036724495692 1.899407837386196e-05
-0.9146259871931278 0.4043009604354219 0.0001922029954296721
-0.9342754511795358 0.3565519875833234 0.0002479388143170333
-0.9500133424255093 0.3122091914778543 0.0002645189146824429
-0.9623558220776985 0.2717925726219191 0.0002630222714996245
-0.9718984018013195 0.2354005802580269 0.0002517741544487673
-0.979197100064381 0.2029112711902388 0.0002350520531035564
-0.9847297975729619 0.1740895727647269 0.0002154681135223083
-0.9888901911111997 0.1486477446903181 0.0001947370958255883
-0.9919945811768851 0.1262803257418697 0.0001739144130204784
-0.9942929062819353 0.1066845485501477 0.0001536817270146595
-0.9959803598656641 0.08957178498190824 0.0001345251535385249
-0.9972080561080545 0.07467314911971483 0.0001167636078024316
-0.9980921451848317 0.06174187879145028 0.0001006163121374313
-0.9987213333822015 0.05055384090206975 8.612389839813947e-05
-0.9991629682133601 0.04090669378653664 7.317459767954176e-05
-0.9994678727991452 0.03261851380540164 6.163990496383535e-05
-0.9996741500422055 0.02552628257767199 5.13337927874845e-05
-0.9998101655871446 0.01948412224448648 4.205909874746856e-05
-0.9998968649424159 0.01436169692045424 3.376229552938154e-05
-0.9999495703343125 0.01004271331045765 2.641188536384069e-05
-0.9999793688600315 0.006423508150894075 1.993309420673072e-05
-0.9999941792602079 0.003411926317678445 1.430053940283434e-05
-0.9999995710027942 0.0009262316453350495 9.44277566710063e-06
-0.9999993883143095 -0.001106048214052451 5.324903673723002e-06
-0.9999962214383997 -0.002749018937592877 1.950207105451492e-06
-0.9999917609502136 -0.004059314117797213 -7.640196875741108e-07
-0.999987061678531 -0.0050868916720062 -2.941869436821023e-06
-0.9999827386971809 -0.005875566824660867 -4.708968192866698e-06
-0.9999791096883065 -0.006463756532214909 -6.202706301077555e-06
-0.9999762978409409 -0.006885034536645792 -7.466934087412374e-06
-0.9999743050493157 -0.007168623900044795 -8.515718753305938e-06
-0.9999730624358544 -0.007339912424183662 -9.394874154469971e-06
-0.9999724657650976 -0.007420755329933386 -1.009967668711899e-05
-0.9999723982897248 -0.007429841546142441 -1.064399926789603e-05
-0.9999727441462243 -0.007383145991383089 -1.095166457169592e-05
-0.9999733965961991 -0.007294242928777798 -1.095245072412181e-05
-0.9999742624159675 -0.007174565614756052 -1.067149499903663e-05
-0.9999752633710745 -0.007033672146949983 -1.010341665354228e-05
-0.9999763362018356 -0.006879458584661105 -9.270116812712351e-06
-0.9999774305960419 -0.006718499191078414 -8.194965240326359e-06
-0.9999785082020632 -0.006556148696669492 -6.945687821761931e-06
-0.9999795410154121 -0.00639668030553351 -5.627967894173792e-06
-0.9999805091780047 -0.006243496249805883 -4.321620390552058e-06
-0.9999814000452925 -0.006099143685391731 -3.124287233772739e-06
-0.9999822062554606 -0.005965498130323591 -2.125502987808732e-06
-0.9999829252369143 -0.005843734477339308 -1.407837852174581e-06
-0.9999835582798647 -0.005734384786475298 -1.029772385482246e-06
-0.9999841096690798 -0.005637411489251683 -1.018807780295003e-06
-0.9999845869625144 -0.00555210189845313 -1.384969486979941e-06
-0.9999850001954839 -0.005477168942001109 -2.10198059202619e-06
-0.9999853624796783 -0.005410620721848528 -3.128906344376556e-06
-0.9999856900747733 -0.00534973143581319 -4.386746901816166e-06
-0.9999860025822483 -0.005290992915939865 -5.791240792982949e-06
-0.9999863238412968 -0.005229921375423706 -7.264699427964573e-06
-0.9999866817097585 -0.005161039382928045 -8.694450625180882e-06
-0.9999871089512737 -0.005077581256171806 -9.993009829179546e-06
-0.999987642930987 -0.004971303939856155 -1.106645545481473e-05
-0.999988324357915 -0.004832287962186122 -1.187011021527546e-05
-0.9999891954231768 -0.004648535626156939 -1.238706092450356e-05
-0.9999902950287075 -0.004405643102095253 -1.254013749770256e-05
-0.999991651159737 -0.00408625234557509 -1.235276984720869e-05
-0.9999932669814877 -0.003669584549275452 -1.187123562644117e-05
-0.999995098551433 -0.003130934197657392 -1.114268608612522e-05
-0.9999970211307784 -0.002440824736480286 -1.020661593940136e-05
-0.9999987765559201 -0.0015642267685214 -9.01551841549852e-06