# OOMMF: rectangular mesh v1.0
# Segment count: 1
# Begin: Segment
# Begin: Header
# Title: 
# Desc: time = 2.1400428297492974e-11
# Desc: stepsize = 5.479852192005066e-13
# Desc: step = 40
# meshunit: m
# valueunit: (none)
# valuemultiplier: 800000.0000000002
# xmin: 0
# ymin: 0
# zmin: 0
# xmax: 4e-07
# ymax: 1e-07
# zmax: 4e-09
# ValueRangeMaxMag: 1
# ValueRangeMinMag: 0.9999999999999996
# meshtype: rectangular
# xbase: 2e-09
# ybase: 2e-09
# zbase: 1e-09
# xstepsize: 4e-09
# ystepsize: 4e-09
# zstepsize: 2e-09
# xnodes: 100
# ynodes: 25
# znodes: 2
# End: Header
# Begin: Data Text
-0.9440556425075128 0.329777065055766 -0.002455852791163486
-0.9509034862637419 0.3094871529401421 0.0005118363667256276
-0.9592071458538544 0.2827022277644325 0.001049647526080691
-0.9672383017711764 0.2538678781963264 0.001080743681605737
-0.9742818075137587 0.225330749715243 0.001006369956495466
-0.9801415634953138 0.1982969797399164 0.0009073780845799381
-0.9848631068667441 0.1733320893764819 0.0008046894850952052
-0.9885879072724212 0.1506434588250028 0.0007056259447492515
-0.9914821531228675 0.1302411760560534 0.0006132686021405373
-0.9937046434886029 0.1120303605895928 0.0005289757593300882
-0.9953943090082664 0.09586430146426013 0.0004530990230865952
-0.9966671246391579 0.08157508294706127 0.0003853643636625041
-0.9976172515102518 0.06899067874287478 0.0003251703058770079
-0.9983197784116328 0.05794433707015355 0.0002717234779921444
-0.9988338529951937 0.04827922667330455 0.000224460693726232
-0.9992056570975678 0.03984998494666938 0.000183095514802272
-0.9994709690165144 0.03252322904872147 0.0001471918270916299
-0.9996572992424848 0.02617767338694587 0.0001161346934332761
-0.9997856549636053 0.02070352966216904 8.937853524363461e-05
-0.9998719649286745 0.01600154148474497 6.648145057520748e-05
-0.9999282109743539 0.01198209856420343 4.702792113678338e-05
-0.9999633240869762 0.008564434798559542 3.061872104322696e-05
-0.999983892105812 0.005675847399475782 1.688813361755366e-05
-0.9999947155697417 0.003250969436617338 5.505725783771415e-06
-0.9999992421699192 0.001231115319311972 -3.828491112792919e-06
-0.99999990475267 -0.000436308391734251 -1.138585132265581e-05
-0.999998382836654 -0.001798338385400797 -1.741057439722528e-05
-0.9999958036102045 -0.002896941944828343 -2.212124492044417e-05
-0.9999928952168822 -0.003769463437585022 -2.571283279631809e-05
-0.999990102593441 -0.004449034835266083 -2.835831383351188e-05
-0.9999876740738399 -0.004964955963085829 -3.021052613886216e-05
-0.999985725328643 -0.005343047140797775 -3.140379748318529e-05
-0.9999842858708501 -0.005605977506453179 -3.205561670824048e-05
-0.9999833322820806 -0.005773570540490299 -3.226824220985142e-05
-0.9999828114340726 -0.005863088270084538 -3.213012449530168e-05
-0.9999826562713346 -0.005889494929744697 -3.171747267209919e-05
-0.9999827961457579 -0.005865700775558445 -3.109538338397002e-05
-0.9999831632316954 -0.005802786733000702 -3.031935391663481e-05
-0.9999836961857446 -0.005710209822132831 -2.943608714396894e-05
-0.9999843419160543 -0.00559599064717485 -2.848495018404556e-05
-0.9999850561094434 -0.005466882258527207 -2.749843965311265e-05
-0.9999858029739113 -0.005328522138548374 -2.65035932087031e-05
-0.9999865545346307 -0.005185566370156009 -2.552211153044667e-05
-0.9999872897021371 -0.005041808247374546 -2.45717358673403e-05
-0.9999879932771251 -0.00490027973759139 -2.366603203310952e-05
-0.9999886549771458 -0.004763338791263316 -2.281574830197981e-05
-0.999989268559307 -0.004632740115454934 -2.202827164415343e-05
-0.9999898310569207 -0.00450969274765492 -2.130897720845366e-05
-0.9999903421605059 -0.004394901462340247 -2.066036773617807e-05
-0.9999908037301117 -0.004288595558113465 -2.008341951970727e-05
-0.9999912194526843 -0.004190541050598478 -1.95764131520382e-05
-0.9999915946169646 -0.004100040148946719 -1.913627061771064e-05
-0.9999919360132803 -0.004015912920301502 -1.875707953909678e-05
-0.9999922519222144 -0.003936464888930214 -1.843140251810266e-05
-0.9999925521900197 -0.003859434559952239 -1.81484873524702e-05
-0.9999928483387457 -0.003781924260526709 -1.789551321047841e-05
-0.9999931536850108 -0.003700306931906077 -1.765546560044398e-05
-0.9999934833731641 -0.003610111931411703 -1.740826272044365e-05
-0.9999938542336654 -0.003505880990729436 -1.712825555025129e-05
-0.9999942842742536 -0.003380996462787437 -1.678515121815233e-05
-0.999994791566205 -0.003227471677869867 -1.634107360858039e-05
-0.9999953921151109 -0.003035704275076274 -1.575116765717358e-05
-0.9999960961581245 -0.002794180506906005 -1.49601226217272e-05
-0.9999969020140932 -0.002489130157600181 -1.390229920488259e-05
-0.9999977862625837 -0.002104118281456027 -1.249757524877803e-05
-0.9999986884359807 -0.001619571819634488 -1.065078670217721e-05
-0.9999994876648711 -0.001012226252661312 -8.246703979202447e-06
-0.9999999676043404 -0.0002544893131172227 -5.148520777784936e-06
-0.9999997645000421 0.0006862932606188941 -1.191714067458228e-06
-0.9999982911978099 0.001848671651924441 3.818738756384088e-06
-0.9999946271695174 0.003278037487028508 1.011590295951569e-05
-0.9999873609895589 0.005027677199968478 1.797527884398096e-05
-0.9999743669542419 0.007159934765195183 2.772401158958447e-05
-0.9999524915428196 0.009747465181854403 3.974714059682943e-05
-0.9999171179664991 0.01287455737020213 5.449854329909067e-05
-0.9998615683573308 0.01663847542510373 7.250894175111191e-05
-0.9997762933683215 0.02115075194169965 9.439809237655825e-05
-0.9996477893560425 0.02653832366154854 0.0001208834645118359
-0.9994571753600717 0.03294436637757953 0.0001527915118121974
-0.9991783593547039 0.04052862804983003 0.0001910644921716707
-0.9987757297487758 0.04946701532883853 0.00023676836086975
-0.9982013311017626 0.05995012805959385 0.0002910881433824536
-0.9973915302842599 0.07218039257237523 0.0003553101738899258
-0.9962632582231022 0.0863674401453042 0.0004308102083279357
-0.9947100195393577 0.1027215050620657 0.0005190624184276324
-0.9925980022344718 0.1214447184363366 0.00062154971962427
-0.9897627947192832 0.1427202272042842 0.0007395513718967662
-0.9860073364708768 0.1666996351072947 0.000874117098097652
-0.9811016715905215 0.1934901983077279 0.001026236386034611
-0.97478496002931 0.2231431147683469 0.001196675451501441
-0.9667700016192522 0.2556439788955779 0.001385649143260069
-0.9567500275690993 0.2909069403308244 0.001592737858311445
-0.9444072692256098 0.3287728836030724 0.001816821715726315
-0.9294233849730995 0.3690094086415867 0.002056161261114531
-0.911493986877738 0.4113069196906229 0.002308614375997186
-0.890355790488158 0.4552581137613049 0.002572197252460404
-0.8658507303425381 0.5002943127820321 0.002848396609872445
-0.8380983424920271 0.5455099998132481 0.003163608045605484
-0.8080313709950433 0.5891277627027239 0.003712505993638971
-0.7796736518973616 0.6261609990145555 0.005603556917297387
-0.9252793949901972 0.3792670756736859 -0.003811366750213803
-0.9365734717695631 0.3504708837595711 -0.0005400132332734318
-0.9485050423756196 0.3167619932227687 0.0001556841748727871
-0.9592095475191553 0.2826958739146829 0.0002946518458570759
-0.9682477095023738 0.2499925493636487 0.0003135379880428958
-0.9756161293301966 0.2194836630606627 0.0002997336118266398
-0.9814842710086037 0.1915425546220915 0.000274830042591825
-0.986079737360922 0.1662729412770934 0.0002461001398221653
-0.9896326734462187 0.1436214630980873 0.0002167608233779434
-0.9923509724667983 0.1234484179626345 0.0001885383827220727
-0.9944116867360769 0.1055716389106555 0.0001622973442537782
-0.9959604216985311 0.08979320282843868 0.0001383325523202593
-0.9971142973537823 0.07591484975718253 0.0001166148225249842
-0.9979661126917165 0.06374659623032045 9.689185884573512e-05
-0.9985886132851938 0.05311097024948257 7.909685202424086e-05
-0.9990383758596675 0.04384426461736256 6.340220905343232e-05
-0.9993590879188848 0.03579680033664403 4.979550877709761e-05
-0.9995842466228466 0.02883283642424392 3.804166702610939e-05
-0.9997393660968162 0.02282978528188964 2.793417592034543e-05
-0.9998437482760397 0.01767706591784194 1.933533108274778e-05
-0.9999118825243904 0.01327505329630975 1.210410897228752e-05
-0.9999545491460504 0.009534128437707502 6.087054620026175e-06
-0.9999796873282913 0.006373768862578157 1.139488575112804e-06
-0.999993074430973 0.003721704158912822 -2.871217298192163e-06
-0.9999988551534978 0.001513160560960223 -6.067102452476951e-06
-0.999999951969274 -0.0003098195691922058 -8.560578604586065e-06
-0.9999983817588778 -0.001798991482725298 -1.045326225393395e-05
-0.9999954985184832 -0.003000467073636211 -1.183681044022093e-05
-0.9999921779929809 -0.00395522302761022 -1.279280067698197e-05
-0.999988956878201 -0.004699568305139235 -1.339372836713801e-05
-0.9999861366767501 -0.005265573713145396 -1.370325649910316e-05
-0.9999838602222592 -0.005681470336195407 -1.377708172975614e-05
-0.9999821672488102 -0.005972017890116228 -1.366353524900968e-05
-0.9999810340306983 -0.00615884723166498 -1.34041788768291e-05
-0.9999804010564118 -0.006260777360153557 -1.303472129793662e-05
-0.9999801918218131 -0.006294108802766482 -1.258523780934342e-05
-0.9999803251314181 -0.006272894395938295 -1.208139667893435e-05
-0.9999807227430145 -0.006209187474150574 -1.154422788359859e-05
-0.9999813137332739 -0.006113269457356987 -1.099166929826754e-05
-0.9999820366322986 -0.005993855501389911 -1.043783434420346e-05
-0.9999828400725612 -0.005858281531756903 -9.894895946032827e-06
-0.9999836825256775 -0.005712669652057355 -9.371822848697876e-06
-0.999984531489802 -0.005562077159308502 -8.876621806421022e-06
-0.9999853624292961 -0.005410624395072965 -8.414528089699843e-06
-0.9999861576114201 -0.005261608280556877 -7.990624255416854e-06
-0.9999869049952463 -0.00511759515341472 -7.607482614064271e-06
-0.9999875972001696 -0.004980501280453039 -7.268172952087546e-06
-0.9999882306398864 -0.004851652613402343 -6.973364043588437e-06
-0.9999888047886745 -0.004731833904074749 -6.724723923288873e-06
-0.999989321638187 -0.004621316594689596 -6.521494567011504e-06
-0.999989785284256 -0.004519876839364438 -6.364277571728972e-06
-0.9999902016925728 -0.004426791137023655 -6.251101329029063e-06
-0.9999905785690201 -0.004340821924966782 -6.181572686774152e-06
-0.9999909253800804 -0.004260178357522505 -6.152459469982382e-06
-0.9999912534333634 -0.004182465636183384 -6.162175214344099e-06
-0.9999915760507048 -0.004104605841468358 -6.205901642318051e-06
-0.9999919087130933 -0.004022743951757297 -6.28035872563335e-06
-0.9999922691659072 -0.003932120005056382 -6.378491215334781e-06
-0.9999926772900007 -0.003826920981410642 -6.494459513211885e-06
-0.9999931546177404 -0.003700091061415254 -6.617910658197582e-06
-0.9999937231307199 -0.003543113566556858 -6.739105832024531e-06
-0.9999944029697621 -0.00334574092314186 -6.842787709550176e-06
-0.9999952083323751 -0.003095684818422357 -6.913336050911576e-06
-0.9999961406570828 -0.002778240979315283 -6.92822759554524e-06
-0.9999971776188236 -0.002375859272972711 -6.863079359767723e-06
-0.9999982559521154 -0.001867631666583001 -6.684670796182758e-06
-0.9999992451182286 -0.001228707686012659 -6.35569141713574e-06
-0.9999999077010765 -0.0004296089862598222 -5.827252966931816e-06
-0.9999998406301618 0.0005645477994489844 -5.04309906136469e-06
-0.9999983890746006 0.001794946446884371 -3.931473056837925e-06
-0.9999945216907552 0.003310072911015641 -2.408469972793368e-06
-0.9999866517762738 0.005166843247139671 -3.690444406414157e-07
-0.999972383525205 0.007431835680342731 2.310902073014289e-06
-0.9999481556682008 0.01018262943943214 5.784667236707505e-06
-0.9999087464740704 0.01350920500660779 1.023438120824052e-05
-0.9998465939802217 0.017515371931322 1.588260170784639e-05
-0.9997508745664784 0.02232013160435661 2.299403169793494e-05
-0.9996062717377806 0.02805887534487 3.188847610059696e-05
-0.9993913586724822 0.03488424238217105 4.294405488232365e-05
-0.999076514739433 0.04296643447292755 5.661086934106959e-05
-0.9986213052326733 0.05249269802094501 7.341575638577801e-05
-0.99797128045544 0.06366564659092236 9.396961595322183e-05
-0.9970542082047555 0.07670001141532022 0.0001189540964082519
-0.9957758476019821 0.09181742259959233 0.0001491298824457156
-0.9940155046933876 0.1092389219583161 0.0001853605517747595
-0.9916217814130401 0.1291750378072428 0.0002285491753098753
-0.9884091474019039 0.1518133039045133 0.0002794455881321596
-0.9841561168136863 0.1773037592728964 0.000338653073532791
-0.9786057675998054 0.2057439819735521 0.0004068194459351489
-0.9714692053756926 0.2371652341189628 0.0004844915040061214
-0.9624323050718994 0.271521143196478 0.0005717965262339047
-0.9511654048191709 0.3086809452324518 0.000668375330367889
-0.9373351942637563 0.3484280923647017 0.0007733340936717373
-0.9206184488297363 0.3904624025079132 0.0008853824473485498
-0.9007194272120268 0.4344001692165005 0.001003208609027118
-0.8773996642059332 0.4797588561800759 0.001126573610837407
-0.8505479786052828 0.5258959441877724 0.00126173583543704
-0.8203816841270445 0.5718144631511253 0.001453299715757318
-0.7881311523058426 0.615504142444404 0.001984287994020439
-0.758929591873385 0.6511581995085671 0.004344397732475785
-0.8998261600457574 0.4362300544115038 -0.004027570662680125
-0.9157583204844033 0.4017288559756914 -0.0007904049890561723
-0.9324673981400347 0.3612541320223099 -5.918412720822872e-05
-0.9470825659485295 0.3209900309115792 0.0001154631201309515
-0.959143378492309 0.2829204003654122 0.0001629461070895022
-0.9688135967544982 0.2477906072695458 0.0001723154144608599
-0.9764261728840788 0.2158515719582869 0.0001667035898233996
-0.9823392045566314 0.1871086940315172 0.000154301213410822
-0.9868834503327633 0.16143430913874 0.0001388963553601385
-0.9903441880293796 0.1386303509352327 0.0001226213805704647
-0.9929580654219896 0.1184663198400762 0.0001066628701055293
-0.9949165575763055 0.1007027063913786 9.157491568980107e-05
-0.9963720085675813 0.08510472684171898 7.753837193085396e-05
-0.9974441773010596 0.07145004557193081 6.446690105265588e-05
-0.9982263671376623 0.05953248863787345 5.241875582312311e-05
-0.9987907722123724 0.04916290884431604 4.168186905906281e-05
-0.9991928957887195 0.04016909207993769 3.235468953777983e-05
-0.9994751320132318 0.03239536844829979 2.429467548568573e-05
-0.9996696601062008 0.02570156340674261 1.736667852613826e-05
-0.9998007473423419 0.0199616001748939 1.149572485890616e-05
-0.9998865584851172 0.0150622082472973 6.595709750380823e-06
-0.9999405740003987 0.01090176413190328 2.562235491074585e-06
-0.9999726995502362 0.007389191681908752 -7.078049128732416e-07
-0.9999901300295463 0.004442953132701077 -3.309225968102674e-06
-0.9999980196492742 0.001990142986071097 -5.331483886584179e-06
-0.999999999387537 -3.432065974947323e-05 -6.856982495380585e-06
-0.999998574573423 -0.00168842759330009 -7.961428110024631e-06
-0.9999954284669782 -0.003023734319638042 -8.712532629127973e-06
-0.9999916523688054 -0.004085964830548077 -9.171107442801879e-06
-0.9999879185344049 -0.00491555663629588 -9.390578306126814e-06
-0.9999846087768751 -0.005548163719851349 -9.417944651909062e-06
-0.99998190897339 -0.006015117584744768 -9.293889080752324e-06
-0.9999798775150892 -0.006343853950289613 -9.053408383212621e-06
-0.9999784940437692 -0.006558305711341703 -8.72648074001891e-06
-0.9999776934184111 -0.006679266132477386 -8.338188300330608e-06
-0.9999773887622709 -0.006724723163261685 -7.909939407446773e-06
-0.9999774865530364 -0.006710166274783246 -7.458957328610347e-06
-0.9999778960081738 -0.006648868028804409 -7.000079995580159e-06
-0.9999785344849454 -0.006552139078922802 -6.544526555527018e-06
-0.9999793301392413 -0.006429561185325209 -6.102308528577845e-06
-0.9999802228063778 -0.00628919421247098 -5.680215281702954e-06
-0.9999811637344429 -0.006137764118881824 -5.284872856921406e-06
-0.9999821146913271 -0.005980825466042563 -4.919913195810141e-06
-0.9999830467164688 -0.005822908086404029 -4.589712396256532e-06
-0.9999839387989097 -0.00566763846453096 -4.295727959130835e-06
-0.99998477655027 -0.005517848437311831 -4.040938834463184e-06
-0.9999855510356865 -0.005375658584813621 -3.825351014498551e-06
-0.9999862577258337 -0.005242551492459729 -3.651148883623279e-06
-0.9999868956809673 -0.005119419300031516 -3.517383222890593e-06
-0.9999874668781593 -0.005006603126403495 -3.425828300321184e-06
-0.9999879757777167 -0.004903905443071159 -3.374878413484183e-06
-0.9999884290132276 -0.004810595423231154 -3.366088890969885e-06
-0.9999888353002313 -0.004725384994350791 -3.397317909743674e-06
-0.9999892054312252 -0.004646397420158187 -3.469912592675885e-06
-0.9999895524468433 -0.004571103185962114 -3.581142218984777e-06
-0.999989891826249 -0.004496246367669303 -3.731973025546211e-06
-0.9999902417619873 -0.004417733066196965 -3.918846757999483e-06
-0.9999906233054962 -0.004330506197782749 -4.141969561741008e-06
-0.9999910603721318 -0.004228375159527072 -4.396495293363711e-06
-0.9999915792644 -0.004103824847237799 -4.681234275891426e-06
-0.9999922075133868 -0.003947769954011579 -4.989302772447606e-06
-0.9999929714164443 -0.003749278522373592 -5.317134888883668e-06
-0.9999938916563078 -0.003495227903400085 -5.654655745524896e-06
-0.9999949757847906 -0.003169916283098071 -5.994452020812806e-06
-0.9999962060882716 -0.002754590550600765 -6.321512738449988e-06
-0.9999975204061389 -0.002226912148558506 -6.622376410918716e-06
-0.9999987826756364 -0.001560320475617402 -6.874454081076699e-06
-0.9999997383833352 -0.0007233142393581367 -7.054916601215493e-06
-0.9999999483289752 0.0003213895080185452 -7.129560362525815e-06
-0.9999986913401794 0.001617797289248589 -7.061117331307982e-06
-0.9999948231083934 0.003217718167612785 -6.797533845709539e-06
-0.9999865735718361 0.005181952974409046 -6.279269615165969e-06
-0.9999712591124247 0.007581617219466845 -5.426728959647072e-06
-0.9999448781435247 0.01049955510209059 -4.145969634780282e-06
-0.9999015488733904 0.01403184076434849 -2.314882511391033e-06
-0.9998327369788291 0.01828928826875037 2.133888164559721e-07
-0.9997262079530087 0.02339891276852375 3.625995562102038e-06
-0.999564626879801 0.02950519656307353 8.149740194162322e-06
-0.9993237176918638 0.03677100842512508 1.406808612269576e-05
-0.9989698914619046 0.04537791842605953 2.172343742119846e-05
-0.9984572620685359 0.05552562316689293 3.153618527062633e-05
-0.9977240010148779 0.06743008128848567 4.400331431427732e-05
-0.9966880491523036 0.08131991830362545 5.969980508001738e-05
-0.9952423178814734 0.09743060305803168 7.928215555896986e-05
-0.9932496709568859 0.1159960362515342 0.0001035276323293297
-0.9905381948168902 0.1372372648004016 0.0001332628987553421
-0.9868975358007537 0.1613481490712636 0.0001691794211918607
-0.9820772934847849 0.1884784994265935 0.000211838378228082
-0.9757884418583955 0.2187163646391778 0.0002618674974327723
-0.9677086185055879 0.2520712744520534 0.0003197907499031086
-0.9574917769192093 0.2884603063980215 0.0003857004720280234
-0.9447818698289829 0.3276995691152538 0.0004591776644026951
-0.9292296071310872 0.3695024308988983 0.0005392502294755156
-0.9105117069799865 0.4134828187196151 0.000624560703815392
-0.8883547261976693 0.4591572398126773 0.0007138416261289279
-0.8625744953305471 0.5059294301114238 0.0008073118240535109
-0.8331669805591451 0.5530207489083149 0.0009131171025890415
-0.8005623891162613 0.5992484369784576 0.001082548538838953
-0.766419864463901 0.6423378977203169 0.001617562171566102
-0.7365000478498419 0.6764255720585202 0.004015592420045201
-0.8707888667715571 0.4916407052020694 -0.004020758027896947
-0.8911479083992963 0.4537120367218736 -0.000890555583910561
-0.9128822224725783 0.4082230048766023 -0.0001618117519224064
-0.9319703558629261 0.3625344877459813 3.142434070088943e-05
-0.9476737853289093 0.3192403281149183 9.749592308200096e-05
-0.96019820554084 0.2793195146049888 0.0001218071568488585
-0.9700054977315985 0.243082944862925 0.0001276214765891801
-0.9775877225624846 0.2105284525904658 0.0001238747689816803
-0.9833915138853998 0.1814968792639715 0.000115046166028972
-0.9877963340250253 0.1557510568533984 0.0001038064047947185
-0.9911133655260367 0.1330198791791962 9.175404523466465e-05
-0.9935922289946343 0.1130242280340363 7.974198563247934e-05
-0.9954302051177454 0.09549189542825495 6.816716089118027e-05
-0.9967815344824699 0.08016588585976139 5.708845910230205e-05
-0.9977658211166973 0.06680841290449245 4.665302843296568e-05
-0.9984752167863284 0.05520181227053456 3.722287501648097e-05
-0.9989802940311868 0.04514832552717737 2.897334614788171e-05
-0.9993347652328101 0.03646952866630149 2.181608577692581e-05
-0.9995792637204843 0.02900509084832717 1.564909593225896e-05
-0.9997443353452623 0.02261114407712569 1.042030578978232e-05
-0.999852777716317 0.01715875450553425 6.064929638180237e-06
-0.9999214647214967 0.01253253298415894 2.493436634551401e-06
-0.9999627666239751 0.008629331699325381 -3.846314381481294e-07
-0.9999856509486658 0.005357041134833439 -2.655639740049928e-06
-0.999996532281765 0.002633515725979253 -4.400607802405214e-06
-0.999999925637136 0.0003856076686160831 -5.696277471799774e-06
-0.9999989462640366 -0.001451698003869731 -6.612239831293605e-06
-0.9999956897181201 -0.002936067636860337 -7.21198849460402e-06
-0.9999915188110539 -0.004118525092097285 -7.551612565833461e-06
-0.999987278431645 -0.005044097131654668 -7.681028068411234e-06
-0.9999834547821597 -0.005752399804647946 -7.643507334694395e-06
-0.9999802920179125 -0.006278178069343819 -7.476588723040806e-06
-0.9999778765146137 -0.006651798952536105 -7.212395452660169e-06
-0.9999761967198367 -0.006899706256353922 -6.877960431071873e-06
-0.9999751848064898 -0.007044837047391517 -6.496313014140345e-06
-0.9999747449112397 -0.007107003775206217 -6.086023652237378e-06
-0.9999747716272293 -0.00710324411797467 -5.663085025642215e-06
-0.9999751615487386 -0.007048138628099326 -5.239538543054221e-06
-0.9999758199374659 -0.006954100739890325 -4.826196939956841e-06
-0.9999766640934646 -0.006831635885970147 -4.430257105679999e-06
-0.9999776245188148 -0.006689577358367635 -4.058917255275203e-06
-0.9999786447452877 -0.006535291850362506 -3.715914144776988e-06
-0.9999796803282437 -0.006374866196362501 -3.406083587603918e-06
-0.9999806974825598 -0.006213264237970128 -3.130787479567702e-06
-0.9999816715302995 -0.006054469018452473 -2.893454948200626e-06
-0.9999825854311151 -0.005901595313595266 -2.693887655189335e-06
-0.9999834283847732 -0.005756991350500707 -2.534802372681273e-06
-0.9999841946855123 -0.005622310320034775 -2.415023061656361e-06
-0.9999848827226991 -0.005498574415965228 -2.337026257776064e-06
-0.9999854942763431 -0.005386207535144085 -2.299046380981512e-06
-0.9999860339560782 -0.005285062675714104 -2.303604357853125e-06
-0.9999865089274068 -0.005194416007675238 -2.348569234627079e-06
-0.9999869287490832 -0.005112956584826879 -2.436628720245417e-06
-0.9999873054691382 -0.005038739325612855 -2.565365603478121e-06
-0.9999876537785646 -0.004969133017584413 -2.737607047156672e-06
-0.999987991361947 -0.004900726802470632 -2.950588371596395e-06
-0.9999883392017626 -0.004829228739153731 -3.207096003463138e-06
-0.9999887219278113 -0.004749316256611611 -3.503803534539747e-06
-0.9999891678734335 -0.004654473227786224 -3.843100754947397e-06
-0.9999897087980459 -0.004536769796336991 -4.22069641991269e-06
-0.9999903787239206 -0.004386620348074102 -4.638001974264552e-06
-0.9999912115361277 -0.00419247237415698 -5.089100165263278e-06
-0.9999922363376361 -0.003940461062915836 -5.573524714026858e-06
-0.9999934695354266 -0.003613979731590406 -6.082690554636885e-06
-0.9999949017029515 -0.00319319970784051 -6.612875892130355e-06
-0.9999964768162375 -0.002654487515925758 -7.151192600586912e-06
-0.999998060007367 -0.001969751859697445 -7.688528292871173e-06
-0.9999993887159818 -0.001105667372686878 -8.20509471708558e-06
-0.999999999702227 -2.280682169432243e-05 -8.683013371981998e-06
-0.9999991216569927 0.001325368850238049 -9.09140148018476e-06
-0.9999955190394055 0.002993628698372532 -9.398170428802005e-06
-0.9999872675999224 0.005046240853622892 -9.554476857175283e-06
-0.999971435230479 0.007558348546318244 -9.505136224326168e-06
-0.9999436329677869 0.01061747630354452 -9.172076503920931e-06
-0.9998973904812252 0.01432509815747232 -8.46256691876197e-06
-0.9998232972636528 0.01879824981901705 -7.251102971653316e-06
-0.9997078371077576 0.02417106527103394 -5.384487075275648e-06
-0.999531828401339 0.03059614363921748 -2.661657344432262e-06
-0.9992683720280452 0.03824553128227846 1.16470759688932e-06
-0.9988802029914584 0.04731109838763309 6.410769012337646e-06
-0.998316353372537 0.05800395165557599 1.346465093700116e-05
-0.9975080678933272 0.07055249086794466 2.280458820583083e-05
-0.9963639911324543 0.08519856777263847 3.498710776160731e-05
-0.9947647730411884 0.1021912117003762 5.067071661246368e-05
-0.9925574309930659 0.1217774247951542 7.064492276649121e-05
-0.9895500641003306 0.1441896718465653 9.576957139038833e-05
-0.9855078568616112 0.1696297379359844 0.0001267746141977504
-0.980151585328753 0.1982494458721951 0.0001642829844359641
-0.973159887037326 0.2301299428227609 0.0002089925628588474
-0.9641764530694513 0.2652615670831758 0.0002614861174130447
-0.9528229219627975 0.3035265651992319 0.0003218705218631612
-0.9387172633514228 0.344687898872857 0.0003896878621823267
-0.9214966418389824 0.3883860501068632 0.0004638554376245569
-0.9008440718131521 0.4341424461940374 0.0005428551900516018
-0.8765212841082972 0.4813626985575001 0.0006252540146012402
-0.8484205009080675 0.5293223476910389 0.0007112480229866511
-0.8166744819241264 0.5770980293109085 0.0008094068354604888
-0.7819374390763204 0.6233561553972616 0.0009720592111335564
-0.7461833100323122 0.6657388544631567 0.001498495013480726
-0.7154250197274135 0.6986789195128381 0.003848191315733072
-0.8401966348342556 0.5422673142395011 -0.003971740257118521
-0.8645357815962529 0.502570338360824 -0.0009681630247154186
-0.8910682818860969 0.4538692010922847 -0.0002555707536563749
-0.9147231972568717 0.4040810189201695 -5.048369319521524e-05
-0.9343528208820153 0.3563492739988309 3.209869584036163e-05
-0.950073807314434 0.3120252482620919 7.142853035213845e-05
-0.9624023155394453 0.2716280085909978 8.940471047863918e-05
-0.971933607605549 0.2352552940386 9.504564089622333e-05
-0.9792233460931351 0.2027846881814934 9.330218728575878e-05
-0.9847490511943893 0.1739807418650657 8.736035207679959e-05
-0.9889041012425882 0.1485552835180926 7.927450877919114e-05
-0.9920044788492224 0.1262026505558851 7.025490322014478e-05
-0.9942998391470904 0.1066200082319268 6.096468853594096e-05
-0.9959851320577437 0.08951879161678823 5.164676255161761e-05
-0.997211252223013 0.07463053415724816 4.25583609848931e-05
-0.9980941969515206 0.06170877445669489 3.4157742750816e-05
-0.9987225800562078 0.0505292724296166 2.671337590516811e-05
-0.9991636699858372 0.04088960958786767 2.020356885062218e-05
-0.9994682190023898 0.03260795903062969 1.456183874545198e-05
-0.9996742772377414 0.02552135054947649 9.763712714155135e-06
-0.9998101696105434 0.01948396032896561 5.764997682141487e-06
-0.9998968104116002 0.01436553244723195 2.493095894981968e-06
-0.9999494987291466 0.01004987518878061 -1.328532512228854e-07
-0.9999793049994835 0.006433472464541393 -2.190350584325444e-06
-0.9999941373169785 0.003424225104573064 -3.755621899178836e-06
-0.9999995578826244 0.000940324701805386 -4.900021025543615e-06
-0.9999994050988796 -0.001090765558724998 -5.690517733277417e-06
-0.9999962647126979 -0.002733225635092763 -6.187033726737096e-06
-0.9999918241511756 -0.004043709841358716 -6.443842399903123e-06
-0.9999871368136031 -0.005072096703977124 -6.508283206051286e-06
-0.9999828172835261 -0.005862175062186877 -6.421978399954101e-06
-0.9999791838902115 -0.006452266855170789 -6.220588299923529e-06
-0.9999763613991218 -0.006875798699381561 -5.934469440825215e-06
-0.999974353802334 -0.007161822837959179 -5.58941274655598e-06
-0.9999730948862936 -0.007335494286022474 -5.206446635022108e-06
-0.9999724824952668 -0.007418505858894594 -4.80356689757434e-06
-0.9999724009952603 -0.00742948372783411 -4.394479321678994e-06
-0.9999727353248703 -0.00738434770072577 -3.991371987432725e-06
-0.9999733792031152 -0.007296634301176858 -3.602453624610135e-06
-0.9999742393228714 -0.007177790758543742 -3.235834931349905e-06
-0.9999752369559619 -0.007037433231074282 -2.895765728126856e-06
-0.9999763078687548 -0.006883581515241482 -2.587691455212683e-06
-0.9999774013252142 -0.006722859028788097 -2.313129161965357e-06
-0.9999784785392003 -0.006560674821720739 -2.075954041320359e-06
-0.9999795110116247 -0.006401371215022552 -1.875885064368318e-06
-0.9999804788143649 -0.006248358764379943 -1.716037814873235e-06
-0.9999813690944106 -0.006104216700244653 -1.595016993342168e-06
-0.9999821747025456 -0.005970785113368334 -1.515748774644653e-06
-0.9999828931545225 -0.005849221839798698 -1.476201204525502e-06
-0.9999835257492196 -0.005740054700999715 -1.47948388812556e-06
-0.9999840770385806 -0.005643196521230597 -1.523239486886363e-06
-0.9999845544312996 -0.005557957919901521 -1.610972221802164e-06
-0.999984968131995 -0.00548301988178615 -1.740174521298022e-06
-0.9999853311708407 -0.00541640466332735 -1.914819386045652e-06
-0.9999856597286079 -0.005355402187836219 -2.132306026412455e-06
-0.9999859734775102 -0.005296493414528087 -2.397024926900661e-06
-0.999986296122749 -0.00523522295432304 -2.706224660692203e-06
-0.9999866557931623 -0.005166064867553003 -3.064532570838519e-06
-0.9999870853826357 -0.005082229422967445 -3.468860961380822e-06
-0.9999876223344933 -0.0049754560002875 -3.923740029286933e-06
-0.9999883077495765 -0.004835736195616764 -4.425394013733807e-06
-0.9999891839701885 -0.004651012562694293 -4.977714828925699e-06
-0.9999902900230614 -0.004406793449332335 -5.575644515047591e-06
-0.9999916533550932 -0.004085728997189765 -6.221584865092384e-06
-0.9999932761940311 -0.003667085900874245 -6.908216743368674e-06
-0.9999951135064129 -0.003126164583192147 -7.635097182049696e-06
-0.9999970387679175 -0.002433595074489055 -8.391020491886479e-06