# OOMMF: rectangular mesh v1.0
# Segment count: 1
# Begin: Segment
# Begin: Header
# Title: 
# Desc: time = 1.263446140039479e-10
# Desc: stepsize = 4.414716323322696e-13
# Desc: step = 260
# meshunit: m
# valueunit: (none)
# valuemultiplier: 800000.0000000002
# xmin: 0
# ymin: 0
# zmin: 0
# xmax: 4e-07
# ymax: 1e-07
# zmax: 4e-09
# ValueRangeMaxMag: 1
# ValueRangeMinMag: 0.9999999999999996
# meshtype: rectangular
# xbase: 2e-09
# ybase: 2e-09
# zbase: 1e-09
# xstepsize: 4e-09
# ystepsize: 4e-09
# zstepsize: 2e-09
# xnodes: 100
# ynodes: 25
# znodes: 2
# End: Header
# Begin: Data Text
-0.9446507166040612 0.3280714775542815 -0.002032051865470422
-0.9514029496394077 0.3079474811011313 0.0008810793961573507
-0.9596072471257221 0.2813397787747605 0.001363870507669799
-0.9675518488203094 0.2526689575202436 0.001348239605623652
-0.9745247396699999 0.2242766244773339 0.001235914305849988
-0.9803286549335285 0.1973689545989975 0.001106380005815398
-0.9850067385034662 0.1725130915383554 0.0009789538511934645
-0.988697976017583 0.1499185561949572 0.0008594923814125422
-0.9915663796296145 0.1295976560390885 0.0007498915875581451
-0.993768972569222 0.1114576417420318 0.0006505812921414251
-0.995443285570077 0.09535381525168811 0.0005613647627948965
-0.9967042310787924 0.08111993395050576 0.0004817317698809058
-0.9976451751193847 0.06858524364343384 0.000410993166043885
-0.9983406198090564 0.05758372546315935 0.0003484265376687078
-0.9988492682757563 0.0479588699204267 0.000293361452771115
-0.999216936579558 0.03956581309728575 0.000245125505920643
-0.9994791085580224 0.032271819731549 0.0002029957512546878
-0.9996630725066398 0.0259559976188843 0.0001662954985005603
-0.9997896643980847 0.02050875121133703 0.0001344861178906344
-0.9998746750394573 0.0158310690564842 0.0001070853332585881
-0.9999299768066023 0.01183361709543893 8.360613631022087e-05
-0.9999644156488368 0.008435840006590463 6.355677040414669e-05
-0.9999845132570109 0.00556516710973114 4.6488486110932e-05
-0.9999950183774913 0.003156294359666629 3.203304563520573e-05
-0.9999993378269827 0.001150629641034894 1.992548082979832e-05
-0.9999998728135626 -0.0005042562298283895 9.925379920302616e-06
-0.9999982790900656 -0.001855212630766525 1.732434580377203e-06
-0.9999956661983336 -0.002944071971825775 -4.977476381070862e-06
-0.9999927490415196 -0.003808116851084402 -1.050868475893779e-05
-0.9999899626837588 -0.004480435752253692 -1.507329503546776e-05
-0.9999875486330571 -0.004990213002161048 -1.878941497600489e-05
-0.9999856185009042 -0.00536305106838811 -2.17853594764556e-05
-0.9999841996357454 -0.005621378204615557 -2.42061546891692e-05
-0.9999832675526219 -0.005784801572215266 -2.618302649299068e-05
-0.9999827687493135 -0.005870385746068712 -2.78504833961487e-05
-0.9999826356942543 -0.005893000163541233 -2.930945796831493e-05
-0.999982796931602 -0.005865569491534702 -3.058414639561419e-05
-0.9999831840670891 -0.005799188412582323 -3.157215769009703e-05
-0.9999837355543038 -0.005703296771473857 -3.213714814280916e-05
-0.9999843983438095 -0.005585877701062048 -3.223782823542432e-05
-0.9999851279312075 -0.005453705211105642 -3.187281266538379e-05
-0.9999858881474391 -0.005312488847333955 -3.111630701990321e-05
-0.9999866506011957 -0.005166982735684964 -3.014648620337172e-05
-0.9999873934024598 -0.005021173923594615 -2.913044131823344e-05
-0.9999881008431669 -0.004878255594412347 -2.818566524033278e-05
-0.999988762905286 -0.004740602609718656 -2.738707576876273e-05
-0.9999893739857575 -0.004609902399671027 -2.674766978280957e-05
-0.9999899322095185 -0.004487180786228167 -2.623344518881878e-05
-0.9999904387426752 -0.004372843263369512 -2.578808487294989e-05
-0.9999908965298605 -0.004266874098133684 -2.535421025395388e-05
-0.999991309706685 -0.004168919669531599 -2.489773740188722e-05
-0.9999916835982072 -0.004078252015750244 -2.439095005731271e-05
-0.9999920242494845 -0.003993853953969282 -2.383300428170912e-05
-0.9999923387732549 -0.003914313896285712 -2.327052120008336e-05
-0.9999926361303362 -0.003837599215867778 -2.274552329482843e-05
-0.9999929270581236 -0.003761028715067329 -2.228744658355308e-05
-0.9999932245507334 -0.003681083028087829 -2.191727414570137e-05
-0.9999935442014763 -0.003593200396491936 -2.15935288841905e-05
-0.9999939034735822 -0.003491785666673503 -2.11784176045778e-05
-0.9999943210263411 -0.003370088269815561 -2.049684316018378e-05
-0.9999948156067505 -0.003219997453740597 -1.93911910157805e-05
-0.9999954037067362 -0.003031872655390091 -1.770882248025642e-05
-0.999996095889513 -0.002794274428758421 -1.536713045350307e-05
-0.999996891091547 -0.002493522203118942 -1.242025839411963e-05
-0.9999977671176754 -0.002113215500461673 -8.939319518717723e-06
-0.9999986653196199 -0.001633809877842738 -4.925578938504619e-06
-0.9999994673958651 -0.001032089078988725 -3.445246625376223e-07
-0.9999999606414745 -0.0002805218474653137 4.953992703309457e-06
-0.9999997864842552 0.0006533796131020848 1.124831981995643e-05
-0.9999983656749747 0.001807842070296263 1.882626057175692e-05
-0.9999947899363368 0.003227897185397782 2.792743594044996e-05
-0.9999876659090261 0.004966540772733882 3.876300477051713e-05
-0.9999748931897958 0.007085924378214922 5.163101768819908e-05
-0.9999533528979743 0.009658547636147527 6.697506306216508e-05
-0.9999184758452168 0.01276849160193047 8.535566500978197e-05
-0.9998636490491598 0.01651277601040261 0.0001074175426982308
-0.9997794111052926 0.02100264773030408 0.0001338591445844803
-0.999652374850803 0.0263647890021764 0.0001653965527476613
-0.9994638077011119 0.03274226571307227 0.0002028091938635388
-0.9991878021776768 0.04029485008259595 0.0002470549821209963
-0.9987889737015258 0.04919854118760935 0.0002992611957787502
-0.9982196407864153 0.05964410006502137 0.0003606600518724841
-0.9974164899162387 0.07183424368525501 0.0004325243769272584
-0.9962968023884761 0.08597915553673165 0.0005161043384526599
-0.9947544353693545 0.1022899699647322 0.0006126643536465697
-0.9926559099967429 0.120969917152665 0.0007235278951618988
-0.9898370978354081 0.1422033662801644 0.000849921976413408
-0.9861010834195308 0.166143515356001 0.0009927658219859169
-0.9812178338125552 0.1928995438918441 0.001152638067473689
-0.9749262094060021 0.222524420755447 0.001329804758882405
-0.9669384996225432 0.255005127450716 0.001524113364678895
-0.9569472232260893 0.2902567864874092 0.001734894198262391
-0.9446337355639767 0.328120801109163 0.001960998196760929
-0.9296787125098334 0.3683648293016242 0.002200917909298942
-0.9117767981613686 0.410678771549954 0.002452943705622909
-0.8906638481936379 0.4546543019554859 0.002715738254997166
-0.8661811078499666 0.4997212609156011 0.00299162041801399
-0.838447605018202 0.5449721739631498 0.003308057605135324
-0.8083956887261891 0.5886267948927495 0.003860930354121544
-0.7800488167680671 0.6256921531229201 0.005759598869883397
-0.9259863172374303 0.3775417814959643 -0.003397574710594296
-0.9371668704760204 0.348881391702025 -0.0001772180569352596
-0.9489803321008277 0.3153349211818294 0.0004655846343442036
-0.9595824566419747 0.2814270703698995 0.0005594354009236866
-0.9685371282622662 0.2488685152381256 0.000541572389135247
-0.9758393855040302 0.2184885480517251 0.0004980656237203472
-0.9816558860188627 0.1906607454688056 0.0004489786190801974
-0.9862113635215779 0.1654901395881019 0.0004001999755275045
-0.9897334433904592 0.1429251057040359 0.0003538275769307933
-0.9924279492873549 0.1228278019646815 0.0003107053587283231
-0.9944702904165456 0.1050179410500761 0.0002711760198428661
-0.9960048159037109 0.08929922353021949 0.0002353157761444567
-0.9971477000482357 0.0754746518523455 0.0002030179309359174
-0.997991040165038 0.06335497955804568 0.0001741134818924584
-0.998607048680777 0.05276305799070909 0.0001484470839700846
-0.9990518646104212 0.04353568638028769 0.0001258166815681865
-0.9993688231287017 0.03552385310045201 0.000105920964509727
-0.9995911546698619 0.02859223111865894 8.846145710599216e-05
-0.9997441676800377 0.02261843993957246 7.324239311528291e-05
-0.999846998655901 0.01749216018607486 6.009002222251577e-05
-0.9999140058131254 0.01311406108519613 4.879141576174818e-05
-0.9999558675916161 0.009394750680621814 3.909919534772855e-05
-0.9999804440129364 0.006253850338371506 3.078368434724737e-05
-0.9999934505324309 0.003619161754663735 2.367353086890162e-05
-0.999998983085078 0.001426014076042258 1.768231662067187e-05
-0.9999999264323346 -0.0003833709457091697 1.272960218962956e-05
-0.9999982691470274 -0.001860545087284315 8.656057722201986e-06
-0.9999953442369783 -0.003051471230026221 5.262984920790606e-06
-0.9999920117501864 -0.003997052695679796 2.358503559735856e-06
-0.9999887967143435 -0.004733544736292164 -1.694483406030536e-07
-0.9999859925456335 -0.005292892121415401 -2.348329317996995e-06
-0.9999837372219041 -0.005703093359006253 -4.225113197321114e-06
-0.9999820678616929 -0.005988649308534095 -5.874674107069613e-06
-0.9999809594371586 -0.006170956881735452 -7.369049681669384e-06
-0.999980351936221 -0.006268625382104234 -8.793760588694928e-06
-0.9999801682553601 -0.006297856128717189 -1.020603338842695e-05
-0.9999803262641485 -0.00627271474841173 -1.159014615788664e-05
-0.9999807470660825 -0.006205266557337974 -1.281059343880958e-05
-0.9999813594843914 -0.006105775624862296 -1.370281026276956e-05
-0.9999821020760647 -0.005982919513671152 -1.419954483089106e-05
-0.9999829232714088 -0.005844053533970742 -1.427793165114568e-05
-0.9999837811229291 -0.005695374897285513 -1.399529951664707e-05
-0.9999846426518076 -0.005542046363541431 -1.351446342045995e-05
-0.9999854824251346 -0.00538839217833832 -1.298856269346338e-05
-0.9999862821488962 -0.005237877161105034 -1.252490340576439e-05
-0.9999870300609679 -0.005093089552377836 -1.219245387687444e-05
-0.9999877195122895 -0.004955873347889713 -1.199874168346828e-05
-0.9999883481674451 -0.004827358240271465 -1.190647123792795e-05
-0.9999889171757144 -0.004708012861191884 -1.185921985831702e-05
-0.9999894297583622 -0.004597850838984418 -1.179861142313157e-05
-0.9999898905463002 -0.004496517372815586 -1.169247345085896e-05
-0.9999903055471441 -0.004403257780763332 -1.15171641853191e-05
-0.9999906816296177 -0.004317004385723944 -1.12723690295403e-05
-0.9999910269200579 -0.004236267012927114 -1.100737684984738e-05
-0.9999913516928643 -0.004158896897562594 -1.077372233485024e-05
-0.9999916683574331 -0.004082046434411611 -1.061245307311343e-05
-0.9999919920286749 -0.004001970402324967 -1.055561108341377e-05
-0.9999923409276492 -0.003913818359621782 -1.05776883018977e-05
-0.9999927356466263 -0.00381163251396161 -1.056196691271383e-05
-0.9999931984655904 -0.00368821302600369 -1.035534281081947e-05
-0.9999937521352424 -0.003534910745266043 -9.823563056230195e-06
-0.9999944173235011 -0.003341443348128573 -8.842097638816506e-06
-0.9999952085935038 -0.003095599417889934 -7.367369811449412e-06
-0.9999961280755294 -0.002782769065838945 -5.502274248843827e-06
-0.9999971548408479 -0.002385434727577216 -3.371808810476309e-06
-0.9999982276829619 -0.001882718739164574 -1.041027107710116e-06
-0.9999992189729604 -0.001249820535842854 1.447985966484915e-06
-0.9999998954158725 -0.0004573302665700394 4.155818010709494e-06
-0.9999998598111589 0.0005294572834565077 7.25583690994303e-06
-0.9999984662737125 0.001751379781081731 1.091261418861771e-05
-0.9999946973441357 0.003256539878848969 1.521931007441529e-05
-0.9999869868602735 0.005101539138018963 2.021223533508336e-05
-0.9999729678336837 0.00735274959277307 2.598692913602729e-05
-0.9999491185069166 0.01008758268090978 3.275508948047162e-05
-0.9999102714329605 0.01339579849586021 4.081079578455248e-05
-0.999848938702668 0.01738094432670799 5.049217647458855e-05
-0.99975439702769 0.02216171838680311 6.214453675003506e-05
-0.9996114628058601 0.02787324234341183 7.608149235777408e-05
-0.999398878445323 0.0346680426545958 9.263222625101414e-05
-0.9990872339681425 0.04271634721636361 0.0001122603078814702
-0.9986363537500947 0.05220550347670543 0.0001355561088548098
-0.9979921007668255 0.06333829947509047 0.0001631766578907784
-0.9970826072342872 0.07632978460047542 0.0001957899917002398
-0.9958140312609995 0.09140219021361722 0.0002340253635248355
-0.994066079168106 0.1087775375083124 0.0002785336174465889
-0.9916877286911747 0.1286675554510278 0.0003300569579455723
-0.9884937631455823 0.151261127434367 0.0003892936794620138
-0.9842628462119356 0.1767100477709329 0.0004567095068507882
-0.9787379428350833 0.205114006503462 0.0005325326717076794
-0.9716297778340389 0.2365062248225874 0.0006168033265119594
-0.9626235874281384 0.2708418834863519 0.0007092788917432265
-0.951388825191405 0.3079913119878268 0.0008093459920749631
-0.937591101474093 0.3477385328559912 0.000916080651175918
-0.920906000669502 0.3897833760840249 0.001028425710628178
-0.9010366418610326 0.4337414642679022 0.001145512343398732
-0.8777436200209134 0.4791289286346114 0.001267776806552231
-0.8509151543785646 0.5253012786633895 0.001402384936861571
-0.8207684347971137 0.5712588133274547 0.001595191651160109
-0.7885342858355638 0.6149871053236217 0.002130809111480921
-0.7593464165130174 0.6506710129142178 0.004500297992839737
-0.9006549106607369 0.4345199555524732 -0.003624931637473368
-0.916462924640377 0.4001193811811459 -0.0004342382098358198
-0.9330374517019148 0.3597791716785133 0.0002476851220487521
-0.947533185104844 0.3196571896605083 0.0003797675799613699
-0.9594951068984173 0.2817250184263121 0.0003922125549258497
-0.9690860858207186 0.2467225550596342 0.0003729524418648844
-0.9766362857452124 0.2148986905180961 0.0003437723122139031
-0.9825007005008626 0.1862586277359985 0.0003116235172299786
-0.987007251780802 0.1606754708520253 0.0002792822731332212
-0.9904388270705907 0.1379524131454669 0.0002480692938388575
-0.9930301395813004 0.1178604855661836 0.0002186898406579079
-0.9949711622518066 0.1001616174599076 0.0001915074525957851
-0.9964130949816143 0.08462219790515846 0.0001666459124365009
-0.997474839305013 0.07102058984403826 0.0001441237064535588
-0.9982490438164302 0.05915091848672868 0.0001239425617114612
-0.9988073661408005 0.0488245235522388 0.0001060319444497925
-0.9992048768774625 0.03986986191150128 9.019674406474912e-05
-0.9994836409142002 0.03213169361510186 7.622544919715206e-05
-0.9996755831866214 0.02547006644353217 6.399882839862291e-05
-0.9998047669323878 0.01975917930003617 5.341031639605633e-05
-0.999889195275556 0.01488607431536824 4.430212025579144e-05
-0.9999422231706542 0.01074937162445704 3.647202148853639e-05
-0.9999736588113701 0.007258154008818944 2.97285326010384e-05
-0.9999906210311891 0.004330967191253616 2.393416936339854e-05
-0.9999982042630705 0.001895021983319605 1.903460611580578e-05
-0.9999999933250409 -0.0001145668846284482 1.497821103229749e-05
-0.9999984589272907 -0.00175556481161099 1.162907257267374e-05
-0.9999952587195742 -0.003079360450705651 8.808291327835602e-06
-0.9999914649430542 -0.004131585750894883 6.342471765060631e-06
-0.999987735748712 -0.004952608913927518 4.136340064235977e-06
-0.9999844431519032 -0.005577943117619711 2.180523716370614e-06
-0.9999817670555413 -0.006038671731126436 4.475446321287568e-07
-0.9999797625809128 -0.006361951537448692 -1.120599987780513e-06
-0.99997840771006 -0.00657146155500451 -2.585259932052059e-06
-0.9999776365949744 -0.006687771954189828 -4.027167260688431e-06
-0.9999773615801444 -0.006728766379863445 -5.497122824128557e-06
-0.999977488048558 -0.006709943928036229 -6.969815089694903e-06
-0.9999779244681585 -0.006644584819603917 -8.302348538010096e-06
-0.9999785878700959 -0.006543983068845084 -9.323266673252398e-06
-0.9999794064082212 -0.006417683410157676 -9.955297787892588e-06
-0.9999803196950194 -0.006273764360311618 -1.016845883088751e-05
-0.9999812785219374 -0.006119028129791977 -1.001887575253108e-05
-0.9999822440919311 -0.005959144852734584 -9.668972712813426e-06
-0.9999831864542171 -0.00579885531183015 -9.270535282465321e-06
-0.9999840839749825 -0.005641960380016406 -8.932240564447782e-06
-0.9999849225652001 -0.005491317339849131 -8.726007891218418e-06
-0.999985694103399 -0.005348973134178408 -8.657511699871333e-06
-0.9999863955039037 -0.00521619896352125 -8.688104793989403e-06
-0.9999870277144648 -0.00509355730298904 -8.763037788256252e-06
-0.9999875941338077 -0.004981114401458667 -8.820358441133005e-06
-0.9999880998574572 -0.004878531088888844 -8.825354514455468e-06
-0.9999885515907669 -0.004785040306049881 -8.756088075794381e-06
-0.9999889570869805 -0.004699535077888932 -8.610684875119169e-06
-0.9999893256179087 -0.004620452254189645 -8.438393038780849e-06
-0.9999896689880196 -0.004545530592581754 -8.29833282146884e-06
-0.9999900016129375 -0.004471756509716512 -8.238601287651297e-06
-0.9999903412347532 -0.004395152830941313 -8.294246416003712e-06
-0.9999907094157464 -0.004310569669228739 -8.445021475459491e-06
-0.9999911308481227 -0.004211668493051311 -8.578876745432832e-06
-0.9999916327172483 -0.004090772850605964 -8.542610074978426e-06
-0.9999922434109323 -0.003938661031339482 -8.200633651328747e-06
-0.9999929898117129 -0.003744365398373967 -7.429284206048196e-06
-0.9999938929859213 -0.003494846558970578 -6.196008474024809e-06
-0.9999949612637848 -0.003174496129596369 -4.622176458696438e-06
-0.9999961784955362 -0.002764595124245684 -2.850040078989391e-06
-0.999997484850372 -0.002242831246560604 -9.638146663981417e-07
-0.9999987475288998 -0.001582700124529602 9.730544690668031e-07
-0.9999997166620092 -0.0007527728080370623 3.000038240100816e-06
-0.999999959647443 0.0002840376389740544 5.266052192813217e-06
-0.9999987653646963 0.001571370913757527 7.907828760182298e-06
-0.9999950051607649 0.003160622231882467 1.098310689321324e-05
-0.9999869322343925 0.005112254955330534 1.448170104534655e-05
-0.9999718957411444 0.007497158629428719 1.844849573666874e-05
-0.9999459390743203 0.01039799970160036 2.304302077875714e-05
-0.999903242328784 0.01391061350083277 2.850289410632539e-05
-0.9998353556073858 0.01814553513539306 3.510131114214281e-05
-0.9997301589315962 0.02322945252577778 4.310402816756697e-05
-0.9995704690090865 0.02930656418664853 5.273071444221428e-05
-0.9993322031093412 0.03653961830539238 6.420845825431216e-05
-0.9989820131926783 0.04511021225351673 7.789701957779193e-05
-0.9984743099938562 0.05521814369828906 9.428047190568492e-05
-0.9977476236412656 0.06707955383994069 0.0001139071613940169
-0.9967203138541123 0.08092340260818266 0.0001373348947285746
-0.9952857512435851 0.09698580369548872 0.0001650849235720204
-0.9933072617310251 0.1155017086510772 0.0001977146783656433
-0.9906133660575743 0.1366934648837942 0.0002358943516372241
-0.9869940716085271 0.1607564121943979 0.0002802641715050196
-0.9821991460640208 0.1878422948941245 0.0003312401192723485
-0.9759394237053648 0.2180414867135219 0.0003890107928669699
-0.9678920801913555 0.2513657004585665 0.0004535811109908621
-0.9577102894419971 0.2877337766529522 0.0005246617526526018
-0.9450369185798019 0.3269630875699808 0.0006015711905235139
-0.929521350935098 0.3687676656811294 0.000683303651715509
-0.9108388514825995 0.4127614270568095 0.0007687417541094215
-0.8887146143300465 0.4584600306313339 0.0008570820920477321
-0.8629634078025509 0.5052655298809366 0.0009492670562200756
-0.8335806439044566 0.552396776111573 0.00105444268290744
-0.8009966575065695 0.5986675649148403 0.001225309037916065
-0.7668714033857805 0.6417983587660961 0.001765603089176009
-0.7369659489863046 0.675916982361932 0.00417408546329349
-0.8717256768043653 0.4899807985753242 -0.00362786816989121
-0.891958161053805 0.4521176262589986 -0.0005394028572626099
-0.9135488702026802 0.4067289526413531 0.0001443422115658999
-0.9325045418497965 0.3611581239858824 0.0002981752817322962
-0.9480950928655669 0.3179867688103146 0.0003312790473944878
-0.9605271315354849 0.2781861281324116 0.0003281751218262625
-0.9702605565020921 0.2420627103872103 0.0003110245130562969
-0.9777845399814338 0.2096122863469227 0.0002877250616866891
-0.9835427937483143 0.1806751346462704 0.0002618898859652246
-0.9879121751565663 0.1550144468394108 0.0002354750367852106
-0.9912016783465314 0.1323600728685838 0.0002096502846447738
-0.9936591785245098 0.1124339924841528 0.0001851163669334545
-0.9954806010974969 0.09496497520935067 0.0001622407262880494
-0.9968191552647879 0.07969662323379249 0.000141217299347775
-0.9977936508724228 0.06639138010013516 0.0001221764320527157
-0.9984955881138452 0.05483201128869546 0.0001051438164666242
-0.9989950117412101 0.04482140579265156 8.999416314455507e-05
-0.9993452294251302 0.03618157767567749 7.656456695196433e-05
-0.9995865614007939 0.02875242722939501 6.477156048809845e-05
-0.9997493027388024 0.02239037067621743 5.453677663478484e-05
-0.9998560524823942 0.01696679768792342 4.572242868051425e-05
-0.9999235302136521 0.01236657877114429 3.813874888550699e-05
-0.9999639864818405 0.008486739110707115 3.160082091233521e-05
-0.9999862955531336 0.005235268022384574 2.597410675566178e-05
-0.9999967989416152 0.002530149561994154 2.12065268022251e-05
-0.9999999553146213 0.0002984513814272062 1.724900161886582e-05
-0.9999988377047154 -0.001524596382085853 1.396744041007318e-05
-0.9999955105167648 -0.002996468126691161 1.118392151360428e-05
-0.9999913135104609 -0.004168072392609978 8.726534211970642e-06
-0.999987074615903 -0.005084344488267069 6.50019357471859e-06
-0.9999832682214735 -0.005784743457503825 4.497889003710716e-06
-0.9999801311596457 -0.006303751156906498 2.699844272749215e-06
-0.9999777457136327 -0.006671437353649236 1.056833620389462e-06
-0.999976098211232 -0.006913971796405438 -4.885829651193639e-07
-0.999975119844885 -0.007054054658906878 -2.019030699102035e-06
-0.9999747137522436 -0.00711138827976025 -3.585021640889757e-06
-0.9999747732560846 -0.007103015194100636 -5.156959590404973e-06
-0.9999751940846192 -0.007043519858348608 -6.59034173253228e-06
-0.9999758810764037 -0.006945301000946313 -7.712057797264074e-06
-0.9999767514537774 -0.006818832800869872 -8.437040027936078e-06
-0.9999777354813947 -0.006672965255520091 -8.729253990658835e-06
-0.9999787761924929 -0.0065151431144015 -8.646537310700767e-06
-0.9999798285139739 -0.006351574243312611 -8.354313494126842e-06
-0.9999808575827669 -0.006187439205821705 -8.006742642154126e-06
-0.9999818380774432 -0.006026894364627642 -7.718513446418733e-06
-0.9999827532525482 -0.005873086085513381 -7.568678711201826e-06
-0.9999835932097242 -0.005728285448787771 -7.562098446401051e-06
-0.9999843538388006 -0.005593926970514062 -7.657986988086004e-06
-0.9999850356388307 -0.005470688943653133 -7.803054050575767e-06
-0.9999856419772987 -0.005358710327706457 -7.929258967458248e-06
-0.9999861782411112 -0.005257686071278118 -7.994509157124597e-06
-0.9999866516721707 -0.005166857249528688 -7.977662330695624e-06
-0.9999870707763595 -0.005085097645026825 -7.877575288960044e-06
-0.9999874458879501 -0.005010789009396872 -7.745778192230762e-06
-0.9999877902882921 -0.004941580296554314 -7.649244855059287e-06
-0.9999881203889754 -0.004874322775148347 -7.642466234530122e-06
-0.999988456645259 -0.004804842969244826 -7.763607866002757e-06
-0.9999888241850305 -0.004727731074056205 -7.995690601147925e-06
-0.9999892522021657 -0.004636314540560934 -8.224012631893571e-06
-0.9999897734271067 -0.004522496271501486 -8.287190530168647e-06
-0.9999904228485238 -0.004376545045245204 -8.043466660619544e-06
-0.9999912349643362 -0.004186877147501562 -7.365657897475748e-06
-0.9999922393125833 -0.003939705046321725 -6.225190762154704e-06
-0.9999934531219891 -0.003618520491564421 -4.755209568055539e-06
-0.9999948687052482 -0.003203522046503453 -3.109716574963171e-06
-0.9999964325957357 -0.002671103494973117 -1.385989861491775e-06
-0.9999980135207772 -0.001993227127529348 3.420983309325214e-07
-0.9999993540087939 -0.001136651906495002 2.106605396151741e-06
-0.9999999980600135 -6.215785015085444e-05 4.046517005023695e-06
-0.9999991853805505 0.001276400682189021 6.287562610181182e-06
-0.9999956976562764 0.002933358178919347 8.873038006629837e-06
-0.9999876363934631 0.004972617181496019 1.177204252480751e-05
-0.999972105905001 0.007469082048240556 1.500913408243906e-05
-0.9999447673833116 0.01051008239955936 1.872669227855457e-05
-0.9998992195118453 0.01419684062830488 2.314684573254262e-05
-0.9998261461425704 0.01864609010053852 2.852468470399406e-05
-0.999712159059861 0.02399161928421372 3.50997417364935e-05
-0.9995382463615706 0.03038572372682588 4.305848119957023e-05
-0.9992777254543379 0.03800032426956711 5.259479061050945e-05
-0.9988936019692823 0.04702730955132029 6.404058642266769e-05
-0.9983352421114952 0.05767788394619618 7.785673536902439e-05
-0.9975342957982318 0.07018062241418065 9.457210765047415e-05
-0.9963998823243618 0.08477771724397884 0.0001147296705911115
-0.9948131750654262 0.1017188647138624 0.0001388436818079877
-0.9926217221894101 0.1212521694115079 0.0001674835276937647
-0.9896341272539589 0.1436114676179582 0.0002013527035615355
-0.9856159983055583 0.16900013531765 0.0002411363786907868
-0.98028831750848 0.1975720932113386 0.0002872985956369906
-0.9733295776903461 0.2294110231468568 0.0003400762330526085
-0.9643829491523811 0.2645096742584816 0.0003995094837950764
-0.9530691651107457 0.3027522914919531 0.0004653079377068073
-0.9390049121783578 0.3439033102801993 0.0005367338586287797
-0.9218257667952706 0.3876040251502528 0.0006126660042894466
-0.9012129953344084 0.4333758858249749 0.0006918278698195629
-0.8769266907810139 0.4806235335979652 0.0007732707579426295
-0.8488578173822244 0.5286205347702686 0.0008579558734994476
-0.8171385146518624 0.5764405735532832 0.0009555281836449496
-0.7824231891776541 0.622746095145342 0.001119829584006731
-0.7466867023601718 0.6651738414426148 0.001652022689632492
-0.7159424703714405 0.6981477464557789 0.004012883895152269
-0.8412179919001149 0.540684210713347 -0.003588089857060143
-0.865435417216426 0.5010201115682603 -0.0006216361942802812
-0.8918233299933669 0.4523838475512901 5.053941734580687e-05
-0.9153388705295538 0.4026843724030498 0.0002198182026121103
-0.9348452842763252 0.355055235903468 0.00027188940579489
-0.950462491179045 0.31083914083405 0.0002852845475213477
-0.9627061767527623 0.2705489572269984 0.0002810435242200445
-0.9721694778151365 0.2342785413082774 0.0002673707354153244
-0.9794054037088389 0.2019034259758215 0.0002485259578162635
-0.9848888608428504 0.1731874135547189 0.0002270988753184569
-0.9890108924628036 0.1478425265400613 0.0002047832502189379
-0.9920855417837191 0.125563706577499 0.000182686134379931
-0.9943609142668134 0.106048791141472 0.0001614803374778725
-0.996030754842297 0.08900963634743546 0.0001415824178359864
-0.997245018350336 0.07417788199167755 0.000123282871340845
-0.9981189270421558 0.06130739017290295 0.0001067258287357493
-0.9987404614744678 0.05017451716567556 9.187468879840272e-05
-0.9991764000802961 0.04057727615608881 7.862780793784945e-05
-0.9994771148825973 0.03233407405204709 6.694143875069692e-05
-0.9996803519565032 0.02528222082239086 5.676626808704583e-05
-0.9998141952370768 0.01927622109639938 4.798623790114559e-05
-0.9998993715639629 0.01418608867171586 4.042511328420144e-05
-0.9999510345918479 0.009895820797903942 3.390321981024176e-05
-0.9999801417026483 0.00630201557498928 2.828504810106536e-05
-0.9999945126502124 0.00331272041663856 2.35139251035811e-05
-0.9999996416480125 0.0008463581487782058 1.953791252607949e-05
-0.9999993161894064 -0.001169340639234629 1.62230863261367e-05
-0.9999960845526176 -0.002798338809125049 1.339191123440473e-05
-0.9999916066032095 -0.004097145946959612 1.087292315254022e-05
-0.9999869155879769 -0.005115523377601927 8.568380657300245e-06
-0.9999826120332521 -0.00589708311863433 6.468827706448445e-06
-0.9999790054012796 -0.006479871594479107 4.559196066533664e-06
-0.9999762153999543 -0.006897001271943233 2.799761553174115e-06
-0.999974243342816 -0.007177231336989362 1.138965684996139e-06
-0.9999730217016453 -0.007345465854866804 -5.053909198924137e-07
-0.9999724470754525 -0.007423279946705266 -2.182578525282235e-06
-0.9999724023631836 -0.00742929990690304 -3.859503489039666e-06
-0.9999727715035611 -0.007379445941916031 -5.392275279011256e-06
-0.9999734476448265 -0.007287246505558372 -6.609577231926531e-06
-0.9999743372927354 -0.007164125968942049 -7.419953240568312e-06
-0.9999753614357888 -0.007019719426006162 -7.780942204417753e-06
-0.9999764553385737 -0.006862121276281902 -7.751827703727469e-06
-0.9999775675728275 -0.006698081431278344 -7.501375175885067e-06
-0.9999786582516719 -0.006533221987288212 -7.186804013864098e-06
-0.9999796982098985 -0.006372057752435161 -6.931042351553685e-06
-0.9999806678395483 -0.00621803028409371 -6.823270065145204e-06
-0.9999815552294067 -0.006073644193878854 -6.868959643498825e-06
-0.9999823549858868 -0.005940510715043788 -7.023092913641457e-06
-0.9999830668828766 -0.005819441144368435 -7.23069925707936e-06
-0.9999836939808701 -0.0057106669822847 -7.4155568717694e-06
-0.9999842417064555 -0.005613936419071268 -7.526468770045586e-06
-0.9999847176010123 -0.005528517660766855 -7.543063419960576e-06
-0.9999851307021548 -0.005453285141019828 -7.467603009024204e-06
-0.9999854922130331 -0.005386586056825337 -7.35593904916456e-06
-0.9999858167015616 -0.005326006257273626 -7.284064458344973e-06
-0.9999861223960345 -0.005268297814174128 -7.313253757964459e-06
-0.9999864323311525 -0.005209135972296153 -7.485646820722557e-06
-0.999986775147898 -0.005142904693306042 -7.78602725729639e-06
-0.9999871846069344 -0.005062662976044307 -8.09241830748583e-06
-0.9999876992203631 -0.004959973810353569 -8.231925680236966e-06
-0.9999883610949761 -0.004824687518610524 -8.057956924136223e-06
-0.9999892132696269 -0.004644705483511793 -7.440681168942691e-06
-0.9999902952221902 -0.004405612452987048 -6.352242506232703e-06
-0.9999916352945678 -0.004090148720381635 -4.933613858573394e-06
-0.9999932375593279 -0.003677611234020689 -3.35031281707121e-06
-0.9999950597708789 -0.003143315272390181 -1.712907138747079e-06
-0.9999969792361645 -0.002457950067607325 -1.031027288412738e-07
-0.9999987410640699 -0.001586779128932937 1.506795654356439e-06