# OOMMF: rectangular mesh v1.0
# Segment count: 1
# Begin: Segment
# Begin: Header
# Title: 
# Desc: time = 1.7087401393604814e-10
# Desc: stepsize = 4.1370397222449473e-13
# Desc: step = 360
# meshunit: m
# valueunit: (none)
# valuemultiplier: 800000.0000000002
# xmin: 0
# ymin: 0
# zmin: 0
# xmax: 4e-07
# ymax: 1e-07
# zmax: 4e-09
# ValueRangeMaxMag: 1
# ValueRangeMinMag: 0.9999999999999996
# meshtype: rectangular
# xbase: 2e-09
# ybase: 2e-09
# zbase: 1e-09
# xstepsize: 4e-09
# ystepsize: 4e-09
# zstepsize: 2e-09
# xnodes: 100
# ynodes: 25
# znodes: 2
# End: Header
# Begin: Data Text
-0.9442147970994783 0.3293247770191816 -0.001899520901889097
-0.9510361175075399 0.3090781640967681 0.000995828677715595
-0.9593132719119856 0.2823400627488673 0.001461266740183112
-0.9673214992472139 0.2535489498904444 0.001430770273262754
-0.9743463527651302 0.2250499473681927 0.001306155757094719
-0.9801914212835258 0.1980490266028202 0.001166492115935873
-0.9849016178862989 0.1731119318386606 0.001030601783858143
-0.9886177298281019 0.1504465589035698 0.0009039820818332788
-0.9915053166252302 0.130063775340917 0.0007883197123963486
-0.9937226613317576 0.1118695880246473 0.0006838354511068651
-0.9954083032656633 0.09571813606567735 0.0005900998943087234
-0.9966779429205096 0.08144213669386785 0.0005064251952115084
-0.997625547108223 0.06887003074076567 0.0004319985928629253
-0.9983260778239119 0.05783518307982739 0.0003659711011199908
-0.9988385951064926 0.04818055906183705 0.0003076591886687257
-0.9992091919219276 0.03976084761060535 0.0002564683491158964
-0.9994735653041092 0.03244298756162589 0.0002116987671988139
-0.999659168719068 0.02610587276498985 0.0001726356847748296
-0.9997869669723864 0.02063980218507082 0.0001387008173127072
-0.9998728553288407 0.01594557070641885 0.0001093224468539124
-0.9999287897251546 0.0119335005202851 8.392925184841727e-05
-0.9999636788923826 0.008522736665836949 6.209457402229081e-05
-0.9999840906916733 0.005640609425765191 4.346093618893605e-05
-0.9999948097494722 0.003221755335878123 2.768884043186285e-05
-0.999999270889489 0.001207480832563834 1.450960879069087e-05
-0.9999998966137431 -0.0004547076796958206 3.66452772464276e-06
-0.9999983587013145 -0.001811785772407831 -5.195382228795119e-06
-0.9999957782496807 -0.002905740953451137 -1.234205419068846e-05
-0.9999928785511982 -0.003773926616376157 -1.802171352531199e-05
-0.9999901005118745 -0.00444953603609741 -2.252363348346439e-05
-0.999987688784291 -0.0049620160466874 -2.601161161875276e-05
-0.9999857564777767 -0.00533722997362832 -2.859680255599412e-05
-0.9999843312680735 -0.005597882958319147 -3.040934439588304e-05
-0.9999833884375039 -0.005763840344886204 -3.152025643386861e-05
-0.9999828748349422 -0.005852265700265876 -3.198464303032317e-05
-0.9999827236160415 -0.005878048074309796 -3.194180719482377e-05
-0.9999828645777282 -0.005854020730056782 -3.149940306402582e-05
-0.999983230717382 -0.005791142991652989 -3.077136077798462e-05
-0.9999837611499456 -0.005698819127097551 -2.994937552119171e-05
-0.9999844030769501 -0.005585047436130497 -2.911994796258936e-05
-0.9999851125014096 -0.005456552927470312 -2.838471834409109e-05
-0.9999858537152549 -0.005318984347847736 -2.783665775100497e-05
-0.9999865987777586 -0.005177017624562804 -2.744820939315128e-05
-0.9999873269511508 -0.005034401153931868 -2.724175055502286e-05
-0.9999880232418423 -0.004894142882546248 -2.717199072923497e-05
-0.9999886777405722 -0.004758534734822417 -2.716319365014436e-05
-0.9999892848225382 -0.004629200883960547 -2.718977816556416e-05
-0.9999898417963272 -0.004507279272991487 -2.716084440183225e-05
-0.9999903488514005 -0.00439334419168168 -2.703455585113178e-05
-0.9999908081466556 -0.004287529065042804 -2.677152240837553e-05
-0.9999912233247713 -0.00418958002709529 -2.631774679856525e-05
-0.9999915997890644 -0.004098742710057303 -2.5680817340586e-05
-0.9999919439784172 -0.004013896032354565 -2.483761582115737e-05
-0.9999922637794588 -0.003933422709679581 -2.381218817180921e-05
-0.999992568694599 -0.003855131948119309 -2.265480702846055e-05
-0.9999928695790783 -0.003776285669589903 -2.139022554349501e-05
-0.9999931793551006 -0.00369335058825688 -2.011738441804228e-05
-0.9999935127913938 -0.00360194647671648 -1.888668571848517e-05
-0.9999938863118659 -0.00349671620883705 -1.773823933683067e-05
-0.9999943178782872 -0.003371042998966254 -1.674030125998269e-05
-0.9999948254598137 -0.003216955556785059 -1.582852989587226e-05
-0.9999954249788663 -0.00302486324238943 -1.495663986085139e-05
-0.9999961267423083 -0.002783218238517734 -1.402203528160666e-05
-0.9999969289607737 -0.002478286757034515 -1.279729054236378e-05
-0.999997808100491 -0.002093721640876847 -1.113120607548758e-05
-0.9999987038811572 -0.001610018234662129 -8.791423668429455e-06
-0.9999994958977647 -0.001004078487609947 -5.532320486149529e-06
-0.9999999691280669 -0.0002484801647976213 -1.213626665171582e-06
-0.9999997623784473 0.0006893648925426788 4.369564095414892e-06
-0.9999982925786937 0.00184789319555575 1.142079732981845e-05
-0.9999946451706458 0.003272495315249971 2.011083625137806e-05
-0.999987416424111 0.005016577355158407 3.07420010255493e-05
-0.9999744908267655 0.007142533387052778 4.373288834685114e-05
-0.9999527275636937 0.009723121672678709 5.952199257576731e-05
-0.9999175256134566 0.01284273236517676 7.871758605327722e-05
-0.9998622289207287 0.01659857732107296 0.0001020224883757109
-0.9997773173082034 0.02110210583977962 0.0001300966509837493
-0.9996493234915174 0.02648024246487076 0.000163713019209728
-0.9994594144809094 0.03287609036099515 0.0002036861627538449
-0.9991815574560801 0.04044937993573152 0.0002508036211314953
-0.9987802061729628 0.04937616929845096 0.0003060433040817268
-0.9982074794915805 0.05984722674686051 0.0003705911162827826
-0.9973998251798218 0.07206517990618665 0.0004456190629104093
-0.9962742581964574 0.08623989232071873 0.0005323791965425298
-0.9947243776215172 0.1025817371638766 0.00063227045328573
-0.992616474885868 0.1212929364329453 0.0007465632096053393
-0.9897862214063238 0.1425568943083652 0.000876241602097733
-0.9860365861829238 0.1665256920457632 0.00102205548024662
-0.9811375801375458 0.1933071280401686 0.001184521296653054
-0.9748282744006103 0.2229528546355072 0.001363832469988977
-0.9668213241617361 0.2554488089840506 0.001559850882807506
-0.9568098005767854 0.2907092456669425 0.001772005634532158
-0.9444757916455526 0.328574926500563 0.001999167490686486
-0.9295007867505455 0.3688133277923079 0.002239793044082083
-0.9115802079584419 0.4111147201529532 0.002492254401619301
-0.8904505268512148 0.4550717165634616 0.00275536102496663
-0.8659533528790733 0.5001155868348346 0.003031574234577744
-0.8382078547970061 0.5453406085314381 0.00334855837063506
-0.808146433086864 0.5889686872022832 0.003902330610978555
-0.7797926411812439 0.6260110046694222 0.005801619804840275
-0.9254688344993885 0.3788096145140622 -0.003272968385212255
-0.9367316527442135 0.3500482906794469 -7.02815118650725e-05
-0.948631636145987 0.3163822205021549 0.0005562851005326743
-0.9593089100920603 0.2823579464709458 0.0006364610699245559
-0.9683249252505512 0.2496927517605005 0.0006073358075319674
-0.9756758679069548 0.2192174566063033 0.0005545295965551538
-0.9815304663440076 0.1913052430003542 0.0004976334895465439
-0.9861155317150664 0.1660601173028146 0.0004422122645799606
-0.9896604784994988 0.1434293730355105 0.0003901881378605976
-0.9923725967937452 0.1232741336089982 0.000342221842100229
-0.9944284776075641 0.1054130630180922 0.0002984430355825682
-0.9959733991218811 0.08964887774454412 0.0002587677515990606
-0.9971242478556174 0.07578380182052605 0.0002229798108457873
-0.9979736687924553 0.0636279812394938 0.0001907886600125164
-0.9985943011325649 0.05300373094498045 0.0001620230721782085
-0.9990426157896282 0.04374737920378281 0.0001365614044938513
-0.9993622032494078 0.0357095741993228 0.0001141358479648091
-0.9995864915572972 0.02875477320721265 9.441384948711236e-05
-0.9997409436953841 0.02276048211705268 7.715478965839174e-05
-0.9998448213151289 0.01761616966122873 6.209496262062714e-05
-0.9999125824019957 0.01322214653130574 4.894156091040736e-05
-0.999954980478412 0.009488709569568621 3.751162978545167e-05
-0.9999799309931025 0.006335364687020257 2.766427285235083e-05
-0.9999931923364582 0.003689838720445769 1.926021366858771e-05
-0.9999988938193408 0.001487350297721555 1.221418008655177e-05
-0.9999999455452231 -0.0003299518364389233 6.429296957864658e-06
-0.9999983551390533 -0.001813757509952884 1.697766488730563e-06
-0.99999546933896 -0.003010198835610209 -2.126607917261043e-06
-0.9999921581136401 -0.00396026317978711 -5.174078211325635e-06
-0.9999889534089502 -0.004700319332672228 -7.631724963763126e-06
-0.9999861524452854 -0.005262587378102045 -9.5792306287688e-06
-0.9999838950067961 -0.005675350639694581 -1.105228232564954e-05
-0.9999822186268408 -0.005963412069564367 -1.210904937750537e-05
-0.999981098049312 -0.006148445442274531 -1.275677978656011e-05
-0.999980473665608 -0.006249169436416723 -1.299465251114283e-05
-0.9999802691961807 -0.006281803210973011 -1.291325098498161e-05
-0.9999804039565036 -0.00626031506445317 -1.258100026639544e-05
-0.9999808006206919 -0.006196631675485145 -1.207798900671879e-05
-0.9999813888075348 -0.006100975723521393 -1.15660909734908e-05
-0.999982107402939 -0.005982035652395474 -1.110990359458157e-05
-0.9999829054035334 -0.005847117599048835 -1.079307076902841e-05
-0.9999837413886286 -0.005702354255154762 -1.069340787377238e-05
-0.9999845829047252 -0.005552822417598694 -1.077315656000976e-05
-0.99998540579435 -0.005402599034351661 -1.104457063594829e-05
-0.9999861925712291 -0.005254953447048113 -1.145275409295197e-05
-0.9999869316191212 -0.005112381932787282 -1.191418216629048e-05
-0.999987616270315 -0.004976660766940037 -1.239451463323665e-05
-0.9999882432854682 -0.00484903362514775 -1.279628764879962e-05
-0.9999888127230615 -0.004730143526905376 -1.307428116133301e-05
-0.999989326931742 -0.004620156785213767 -1.318639118641961e-05
-0.9999897899810423 -0.004518823144519949 -1.307896839715034e-05
-0.9999902079436381 -0.004425364835857237 -1.276357123819337e-05
-0.9999905881313181 -0.004338605696018728 -1.222270778638376e-05
-0.9999909395336413 -0.004256843741605822 -1.148844886409663e-05
-0.9999912730433338 -0.004177765473647566 -1.062163966990291e-05
-0.9999916012174525 -0.004098463281497516 -9.658452297637667e-06
-0.999991939074495 -0.004015184946135187 -8.710893740855811e-06
-0.9999923039272249 -0.003923267103631243 -7.845620015164385e-06
-0.9999927152148389 -0.003816997061845014 -7.119263217922482e-06
-0.9999931944021476 -0.003689323187094431 -6.618840644465299e-06
-0.9999937633654998 -0.003531740414353899 -6.304737968404127e-06
-0.9999944421397079 -0.003334014364387451 -6.157308651210115e-06
-0.9999952449780112 -0.00308382620313079 -6.10868006597273e-06
-0.9999961731737388 -0.002766514439831646 -5.977582976925948e-06
-0.9999972042581102 -0.002364623411722079 -5.664284565970017e-06
-0.9999982751549285 -0.001857326611655382 -5.002494541486861e-06
-0.9999992558583989 -0.00121994590060427 -3.827201902675746e-06
-0.9999999104574773 -0.000423179250405977 -2.087936254584551e-06
-0.9999998388086149 0.0005677875013491439 3.112248261867776e-07
-0.999998390727187 0.001794026522964693 3.445409260701776e-06
-0.999994541649087 0.003304030591693548 7.340385823740618e-06
-0.9999867136695575 0.005154836301986005 1.21267243315428e-05
-0.9999725225891031 0.007413079124688583 1.801878192261402e-05
-0.9999484216713116 0.01015644430372939 2.522216623542789e-05
-0.9999092073332263 0.01347501128802457 3.407383357557675e-05
-0.9998473426189161 0.01747253377544422 4.495951177833878e-05
-0.9997520371880698 0.02226793104342345 5.818375232999019e-05
-0.9996080162445002 0.02799657775646847 7.411923024523819e-05
-0.9993939076544116 0.03481104235902704 9.312960166049944e-05
-0.999080158013686 0.04288151724008913 0.0001155098936204457
-0.9986264071733879 0.05239540834370079 0.0001417055656266092
-0.9979782905126494 0.06355550305609238 0.0001723274101981374
-0.9970636682509577 0.07657674720721745 0.0002079449576464533
-0.9957883955820381 0.09168101834032075 0.0002491991813286963
-0.9940318856961151 0.109089514084933 0.0002968773127095386
-0.9916428561159674 0.1290128762898633 0.0003516611758535343
-0.988435866839392 0.1516389321459926 0.000414008553450366
-0.984189459880783 0.1771182446344039 0.0004842284580022541
-0.9786466662692985 0.2055489873561385 0.0005624916477069452
-0.9715184770146756 0.2369629252147195 0.0006487624896114606
-0.9624905851182783 0.2713140648572732 0.0007428117507788033
-0.9512331243114773 0.3084717663990793 0.0008441251429747179
-0.9374125915541388 0.3482193666022212 0.0009517977204252772
-0.9207055398058007 0.3902565506211961 0.001064738538093408
-0.9008159911606338 0.4341994386820209 0.001182166444426078
-0.8775052134372087 0.4795653221607024 0.001304672916885544
-0.8506617242232895 0.5257114784205239 0.001439582705771384
-0.8205025815612002 0.5716404875513548 0.00163298605470686
-0.7882580680107945 0.6153409710029125 0.002169705298468919
-0.7590613432640934 0.6510032745643155 0.004540227818997945
-0.9000473549525643 0.4357780054313464 -0.003505542065074615
-0.9159457222397923 0.4013020357148647 -0.0003317253837463948
-0.9326189617323776 0.3608625221502045 0.0003351486458892598
-0.9472024400776208 0.3206358227576309 0.0004546158137999617
-0.959237073441581 0.2826022442090671 0.0004566215378888784
-0.9688863971785133 0.2475054860270331 0.0004286594939199451
-0.9764826379541801 0.2155956957923285 0.0003920840047848652
-0.9823830378547209 0.1868781472642432 0.0003535681169841696
-0.9869175329610247 0.1612255669382302 0.0003157523877778854
-0.9903707054272406 0.1384405559823396 0.000279805021029826
-0.9929786596953383 0.118293367335181 0.0002462400313573119
-0.9949324778269967 0.1005451054023679 0.0002152780969425243
-0.9963842196188784 0.08496147329988084 0.0001869470295289686
-0.9974534537110705 0.07132027559753697 0.0001611475966843986
-0.9982333521451202 0.05941511305780377 0.0001378602364053714
-0.9987959813786815 0.04905684325602714 0.0001170963259816052
-0.9991967267675154 0.04007357575965841 9.870621916309854e-05
-0.9994778968647066 0.03230985733400552 8.244973396121474e-05
-0.9996716076703516 0.02562561555265686 6.815659657606198e-05
-0.9998020769081677 0.0198948213281964 5.562762818764727e-05
-0.9998874304781221 0.01500414543824201 4.462651745858014e-05
-0.9999411159705138 0.01085188305148673 3.50125729081343e-05
-0.9999730102226804 0.007346979938496928 2.66828411384344e-05
-0.9999902850200355 0.004407888816097124 1.953797572168765e-05
-0.9999980757787131 0.001961697180397566 1.352933953500597e-05
-0.9999999983630897 -5.656846043698239e-05 8.592412328793205e-06
-0.9999985467728447 -0.001704825948423294 4.547928553125819e-06
-0.9999953954464335 -0.003034647313589915 1.269971711469719e-06
-0.9999916286876829 -0.004091766455089562 -1.353457257906298e-06
-0.9999879130428919 -0.004916681393551679 -3.492199069311367e-06
-0.9999846252563239 -0.005545198262585887 -5.215154312978598e-06
-0.9999819475064571 -0.006008711870719926 -6.545776307264197e-06
-0.9999799355108412 -0.00633470749885631 -7.525776224094213e-06
-0.9999785670701568 -0.006547162278809817 -8.149258876891689e-06
-0.9999777767990073 -0.006666771146499796 -8.402072416313292e-06
-0.9999774780307094 -0.00671143512718087 -8.359137032815241e-06
-0.9999775778287944 -0.006696549437646571 -8.080011394870743e-06
-0.9999779864398324 -0.006635252623656499 -7.639261365168443e-06
-0.9999786218663818 -0.006538788759852696 -7.194804299724585e-06
-0.9999794127010586 -0.006416706911346681 -6.816083542991756e-06
-0.9999802991726846 -0.006277039355169793 -6.59099807961092e-06
-0.9999812326648048 -0.00612652222953101 -6.599111650765641e-06
-0.9999821750007375 -0.00597073148489656 -6.806574848346794e-06
-0.9999830976398286 -0.005814153633283112 -7.223638926014666e-06
-0.9999839798742686 -0.005660382859835767 -7.790891797526925e-06
-0.9999848078300044 -0.005512171830684859 -8.420065092511961e-06
-0.9999855733925392 -0.005371491838587755 -9.067631969920215e-06
-0.9999862724996811 -0.005239725134488387 -9.628490490710217e-06
-0.9999869048881185 -0.005117611869043677 -1.005178196757178e-05
-0.9999874729861157 -0.005005373609152711 -1.028957209574483e-05
-0.9999879812438477 -0.004902781051603041 -1.028657928822804e-05
-0.9999884364060285 -0.004809049084391529 -1.005631877351877e-05
-0.9999888467271545 -0.00472295769849372 -9.585046634911414e-06
-0.9999892224308148 -0.004642730101028511 -8.911953171903052e-06
-0.9999895760220942 -0.004565937080293812 -8.107445981960796e-06
-0.9999899221099503 -0.004489501803977758 -7.217164807886949e-06
-0.9999902783064835 -0.004409450311818694 -6.361502227697044e-06
-0.9999906651756809 -0.004320825148143116 -5.615894569296191e-06
-0.9999911061313345 -0.004217538714748301 -5.041762582399008e-06
-0.9999916273976538 -0.004092079207566742 -4.727606497368979e-06
-0.99999225638472 -0.00393537153091812 -4.637847626668691e-06
-0.9999930192762113 -0.003736492509150138 -4.751366953857605e-06
-0.9999939367670732 -0.003482298676654884 -5.001672174716121e-06
-0.9999950162277044 -0.003157133594697775 -5.217094245290095e-06
-0.9999962397316517 -0.002742351987559315 -5.304062474589975e-06
-0.9999975453011004 -0.002215708831775186 -5.113301004181523e-06
-0.9999987974581779 -0.001550826200111047 -4.504948003167673e-06
-0.9999997433948372 -0.0007163786416917367 -3.449858834624535e-06
-0.9999999472373906 0.0003248409922976552 -1.882864775707067e-06
-0.9999986930763696 0.00161673915541394 2.359798397859877e-07
-0.999994844273863 0.003211139559889787 2.901533582901485e-06
-0.9999866407765075 0.00516896798281719 6.205509676125695e-06
-0.9999714121416492 0.007561401529517283 1.031234970343414e-05
-0.9999451733058894 0.0104713965537595 1.537754150912013e-05
-0.9999020633367347 0.01399511575835711 2.167602595738085e-05
-0.9998335764142342 0.01824331668641163 2.951271879348288e-05
-0.9997275158667511 0.02334293232042792 3.910982382444832e-05
-0.9995665943239229 0.0294384261839836 5.074922157505836e-05
-0.9993265978811997 0.03669259574347375 6.468997551457902e-05
-0.9989740134345917 0.04528701691619989 8.112469054433004e-05
-0.998463039761777 0.0554215495095875 0.0001003973536916654
-0.9977319456175763 0.06731232846482063 0.0001230073549311027
-0.9966987778018824 0.08118820113154371 0.0001494163888253077
-0.9952565579588393 0.09728489799715045 0.0001801710497059009
-0.9932682728394433 0.1158364861797036 0.0002159631636317605
-0.9905621398972352 0.1370641483216513 0.0002573850619319698
-0.9869279065111843 0.1611620750217517 0.0003048346015835151
-0.982115200459591 0.1882806533960976 0.0003585846559850867
-0.975834936375103 0.2185085846921601 0.0004187667934057905
-0.9677646107451872 0.2518559561999118 0.000485299746498746
-0.9575579556345635 0.2882402649619439 0.0005579028797309013
-0.9448586703212689 0.3274777681511293 0.0006359917282127322
-0.9293172141140212 0.3692817341814884 0.0007185758599591539
-0.9106100155189232 0.4132659584406516 0.0008045065291062845
-0.8884633345301109 0.4589467350421653 0.0008930788163058228
-0.862692702000792 0.5057275263313437 0.0009854061864446101
-0.8332937977956678 0.5528293196586371 0.001090816685264247
-0.8006966459472055 0.5990686837244914 0.001262279485784108
-0.7665604059148754 0.6421696742403832 0.001803765400776911
-0.7366456483066747 0.6762658031031938 0.004213357809452242
-0.8710377029819116 0.4912035994682557 -0.003513382049251266
-0.8913626609981186 0.4532906488796047 -0.0004407001925439627
-0.9130589299919654 0.4078275833557718 0.0002293820348806971
-0.9321120581175942 0.3621698122309013 0.000371780063752807
-0.9477857104063953 0.3189076525631656 0.0003953303622719031
-0.9602858483803156 0.2790178163397872 0.0003841425175019826
-0.9700738500949192 0.2428097933816832 0.0003599999502411749
-0.9776409790724955 0.2102807807634987 0.0003305747500914405
-0.9834330183213232 0.1812716437848405 0.0002993909706094296
-0.9878286705641128 0.1555456384190726 0.0002682915201937128
-0.9911385022209628 0.1328322725720085 0.0002382824831554882
-0.9936116751184718 0.1128529795544266 0.0002099379718744517
-0.9954451320330379 0.09533601326094641 0.0001835408303529921
-0.9967928828601242 0.08002451713530594 0.000159174945219078
-0.9977743719343022 0.06668046157616121 0.0001369492562851914
-0.9984815984908719 0.05508614882819911 0.000116971749551388
-0.9989849932484562 0.04504412758238271 9.917017448677846e-05
-0.999338163383503 0.03637620453484976 8.336021664395767e-05
-0.999581664425194 0.02892215980091619 6.940755399153169e-05
-0.9997459813947738 0.02253817694761122 5.713911491382283e-05
-0.9998538641868803 0.01709526612089018 4.633378200789342e-05
-0.999922146615938 0.01247795449716296 3.685839582283277e-05
-0.9999631640612967 0.008583105572893032 2.862244070747744e-05
-0.9999858559158189 0.005318599850336213 2.153923580097146e-05
-0.999996613933127 0.002602283616146292 1.556474542338576e-05
-0.9999999347416753 0.0003611141029218005 1.064187160742823e-05
-0.9999989197529119 -0.0014698467238699 6.604354172165953e-06
-0.9999956538446064 -0.002948267428226306 3.327031557471086e-06
-0.9999914914095431 -0.004125179758219465 6.922615455199654e-07
-0.9999872705060284 -0.005045673764641553 -1.470859041869981e-06
-0.9999834713549585 -0.005749522278795607 -3.232972770666907e-06
-0.9999803336686777 -0.006271543236714536 -4.616213765588086e-06
-0.9999779406036913 -0.006642158836426612 -5.656110584579916e-06
-0.9999762784053214 -0.006887857896336046 -6.34368463662658e-06
-0.9999752787961417 -0.007031482932399611 -6.659555988090704e-06
-0.9999748460807985 -0.007092754135379397 -6.667681661426994e-06
-0.9999748755160831 -0.00708860319928674 -6.424666979418086e-06
-0.9999752648259316 -0.007033469999530701 -6.006101846070068e-06
-0.9999759200297011 -0.006939692335318304 -5.57169084030451e-06
-0.9999767589356454 -0.006817738737218865 -5.2031219906882e-06
-0.9999777124658361 -0.006676417198533155 -4.998425802315757e-06
-0.9999787242953128 -0.006523107486573593 -5.043503209695009e-06
-0.9999797500588404 -0.006363917349666071 -5.312723085283418e-06
-0.9999807564092003 -0.006203771229254625 -5.815375635272598e-06
-0.9999817190632967 -0.006046610382955528 -6.487694050542328e-06
-0.9999826215802439 -0.005895463098446636 -7.235849215488566e-06
-0.9999834541188115 -0.005752514627119784 -8.004720619399215e-06
-0.9999842115636995 -0.005619301378533714 -8.680029851402031e-06
-0.9999848931126798 -0.005496677335918535 -9.202534070873386e-06
-0.9999855010742834 -0.005384937386013464 -9.516443627171843e-06
-0.9999860401049255 -0.00528389097025801 -9.564764404364149e-06
-0.9999865174476039 -0.005192767601760148 -9.361969591728975e-06
-0.9999869421571708 -0.005110326404219961 -8.899041630164447e-06
-0.9999873255825444 -0.00503473997674716 -8.224126957373379e-06
-0.999987681772294 -0.00496349157853233 -7.417715145914172e-06
-0.9999880273939736 -0.004893365506567975 -6.53667605480084e-06
-0.9999883827488667 -0.004820200691137062 -5.709878871520511e-06
-0.9999887718827805 -0.004738784988388118 -5.020177646678164e-06
-0.9999892225990821 -0.004642700198990998 -4.53274326420126e-06
-0.9999897665340397 -0.004524025686916703 -4.333656390741396e-06
-0.9999904376092209 -0.004373176291576628 -4.386537336995407e-06
-0.9999912695570617 -0.004178610763437657 -4.66294917276357e-06
-0.9999922914739336 -0.003926444550624677 -5.089356369123434e-06
-0.9999935195084751 -0.003600126505682457 -5.495011039923961e-06
-0.9999949439559973 -0.003179941666598614 -5.782578298315175e-06
-0.9999965089181391 -0.00264236972936133 -5.809220002686456e-06
-0.999998080153446 -0.001959504970618137 -5.448995916967984e-06
-0.9999993969627853 -0.001098204058271827 -4.681033322521621e-06
-0.9999999998113656 -1.911339090937243e-05 -3.456464796193824e-06
-0.9999991232285835 0.001324212593876657 -1.75213122030638e-06
-0.9999955401758495 0.002986574665944789 4.184015984935067e-07
-0.999987337568301 0.005032364576991344 3.134465556452102e-06
-0.9999715979035988 0.007536799275612952 6.542359976860916e-06
-0.9999439506470078 0.01058751378513062 1.07844133564255e-05
-0.9998979488418336 0.01428606461597371 1.611465394543064e-05
-0.9998242138434714 0.01874942378623074 2.280281069324848e-05
-0.9997092714612125 0.02411164844964115 3.104081673882069e-05
-0.9995339932677547 0.03052531105213882 4.107780662716212e-05
-0.9992715491949881 0.03816239177726153 5.313461406507086e-05
-0.9988847582460879 0.04721477738992393 6.737710603299688e-05
-0.9983227471228771 0.05789374317774031 8.413026582280001e-05
-0.9975168699811646 0.07042785893232871 0.0001038710170476136
-0.9963758907563866 0.08505920395626608 0.0001270501595473357
-0.9947805847676174 0.1020370735813177 0.0001542217793240479
-0.9925781093846603 0.1216086433724185 0.0001860846389986986
-0.9895767129390302 0.1440065254435621 0.0002232452828043148
-0.9855416947171231 0.1694328691281255 0.0002661449084835008
-0.9801938636233138 0.1980401232486066 0.0003151172429142453
-0.973211789655489 0.2299101461963868 0.0003703397303270203
-0.9642390022086744 0.2650338850182158 0.0004317542942176194
-0.9528968836321541 0.3032940488860813 0.0004990735574863884
-0.9388031045423105 0.3444537764560718 0.0005716527524722025
-0.921594518662314 0.3881534783757327 0.0006483798244741821
-0.9009537757748732 0.433914466235531 0.0007279481664594995
-0.8766422358425628 0.4811421151984271 0.0008095179646809851
-0.8485517696419405 0.5291116088109225 0.0008942365729090096
-0.8168148348029551 0.5768990740851926 0.0009919503354934827
-0.7820854784254224 0.6231700941727562 0.001156790731174257
-0.7463376852913726 0.6655653257974826 0.001690150882774543
-0.7155843421816639 0.6985145885042848 0.004052020622441226
-0.840466743690725 0.541851961867842 -0.003479104752564699
-0.8647734245824363 0.5021619720951803 -0.0005271787591036697
-0.8912678268329594 0.4534772796957469 0.000132861578091562
-0.9148860653624998 0.403712028708595 0.0002920299873943883
-0.9344833061600492 0.3560067947408559 0.0003355689581392556
-0.9501771054548954 0.311710364873005 0.0003416139546175946
-0.9624835276519453 0.2713399150888713 0.0003308749473095463
-0.9719972428191564 0.234992048788455 0.000311381055926145
-0.9792731291235511 0.2025439606730004 0.0002873525051096849
-0.9847879377122332 0.1737603218570208 0.0002613132810031237
-0.9889343842308588 0.1483533907337959 0.000234826994553386
-0.9920279386333659 0.1260179564054945 0.0002088880505068025
-0.9943178691102679 0.1064515912428372 0.0001840920518714941
-0.9959988551398019 0.08936584759781038 0.0001607586018573515
-0.9972216023171129 0.0744919895341101 0.000139166589140167
-0.9981019294685844 0.06158347262299323 0.0001195440563712877
-0.9987282824863747 0.05041634037142812 0.0001019086251969243
-0.9991678027351217 0.04078841203846153 8.614435213782226e-05
-0.9994711479566185 0.03251798263444336 7.216415152361998e-05
-0.9996762946509733 0.02544213697618139 5.98246193064627e-05
-0.999811509962224 0.0194149981750019 4.891750099663795e-05
-0.9998976600647842 0.01430621722237176 3.931609310642544e-05
-0.9999500022454801 0.009999602577526827 3.094438953400174e-05
-0.9999795730637582 0.006391626722782005 2.372889210077183e-05
-0.9999942531536401 0.003390184211279462 1.762687745410922e-05
-0.9999995826204593 0.0009135647354010007 1.258494482268083e-05
-0.9999993831536031 -0.001110684946851982 8.447561187245488e-06
-0.9999962277035193 -0.002746734945739591 5.086124810291542e-06
-0.9999917936713265 -0.004051244792742336 2.373201091897765e-06
-0.9999871263666978 -0.005074160113291683 1.34686941830422e-07
-0.9999828334083556 -0.005859427078376812 -1.705886351319278e-06
-0.9999792278550618 -0.006445451754438181 -3.174136805389751e-06
-0.9999764306366352 -0.006865723030263312 -4.299512276120883e-06
-0.9999744431452491 -0.007149337778678344 -5.06707849115707e-06
-0.9999731984955216 -0.007321356494007831 -5.451911386702178e-06
-0.9999725946572285 -0.007403371133846865 -5.508550565746191e-06
-0.9999725167206831 -0.007413890697733837 -5.293833604934917e-06
-0.9999728508313734 -0.007368688912496353 -4.887367493790766e-06
-0.999973491538701 -0.007281222430981074 -4.450836335986015e-06
-0.9999743461184429 -0.007162896645913043 -4.078239366432392e-06
-0.9999753362612459 -0.007023307922158173 -3.877924205774066e-06
-0.9999763979020551 -0.006870489304331302 -3.943340810002466e-06
-0.9999774803882774 -0.00671108770377069 -4.259606120440719e-06
-0.9999785454063146 -0.006550473546533849 -4.835989343362317e-06
-0.9999795649215505 -0.006392942037299423 -5.604807239421506e-06
-0.9999805197352098 -0.006241803288385163 -6.465917478619746e-06
-0.9999813980630557 -0.00609946504428278 -7.350467729030975e-06
-0.9999821935253058 -0.005967626509756035 -8.133740835975052e-06
-0.9999829045499983 -0.00584726699004986 -8.746196832266034e-06
-0.9999835330812044 -0.005738770181138317 -9.12357886258548e-06
-0.9999840837437219 -0.005642000925581413 -9.207841987642592e-06
-0.9999845640224996 -0.005556224930575423 -9.013972451096111e-06
-0.999984983527726 -0.005480204935285057 -8.539339133844041e-06
-0.9999853545101824 -0.005412088658066695 -7.842285736419381e-06
-0.9999856923452406 -0.005349304219486159 -7.012641408875986e-06
-0.9999860155856524 -0.00528853435985664 -6.12007604984211e-06
-0.9999863471058793 -0.005225473540769288 -5.302267764746042e-06
-0.9999867143952105 -0.005154707699264707 -4.648246765907269e-06
-0.9999871497392144 -0.005069550134702385 -4.227718977691772e-06
-0.9999876904623257 -0.00496174433309682 -4.122650698247337e-06
-0.9999883775333238 -0.0048212840441731 -4.293632094904553e-06
-0.9999892531495614 -0.00463611510248086 -4.70512038217736e-06
-0.9999903562692549 -0.004391735496251701 -5.274392348962304e-06
-0.9999917140390915 -0.004070849933067363 -5.829377583743362e-06
-0.9999933282876762 -0.003652853794175143 -6.268482042137976e-06
-0.9999951540642572 -0.00311316661420507 -6.452444098910849e-06
-0.9999970654379239 -0.002422617651052976 -6.26556212610999e-06
-0.9999988040569882 -0.00154656140294176 -5.693833597283054e-06