# OOMMF: rectangular mesh v1.0
# Segment count: 1
# Begin: Segment
# Begin: Header
# Title: 
# Desc: time = 7.578630004375222e-11
# Desc: stepsize = 5.0554053560955e-13
# Desc: step = 140
# meshunit: m
# valueunit: (none)
# valuemultiplier: 800000.0000000002
# xmin: 0
# ymin: 0
# zmin: 0
# xmax: 4e-07
# ymax: 1e-07
# zmax: 4e-09
# ValueRangeMaxMag: 1
# ValueRangeMinMag: 0.9999999999999996
# meshtype: rectangular
# xbase: 2e-09
# ybase: 2e-09
# zbase: 1e-09
# xstepsize: 4e-09
# ystepsize: 4e-09
# zstepsize: 2e-09
# xnodes: 100
# ynodes: 25
# znodes: 2
# End: Header
# Begin: Data Text
-0.9446169365654794 0.328165899157524 -0.002446586148588042
-0.9513755345184713 0.3080329864013723 0.0005211605745382667
-0.9595855791235248 0.2814149868603548 0.001059013009969806
-0.9675351147833867 0.2527342710528538 0.001090823762491186
-0.9745120637474665 0.2243327922291644 0.001017812025733994
-0.980319226930223 0.1974167312310518 0.0009206198867904087
-0.9849998700911564 0.1725531328307238 0.000819921159142543
-0.988693106307719 0.1499513893822395 0.0007227461029858227
-0.9915630594373847 0.1296236854248923 0.0006319304092323235
-0.993766842371635 0.1114771816867351 0.0005486035834776073
-0.9954420585277376 0.09536710287476577 0.0004730785704951971
-0.9967036796243756 0.08112712751818203 0.0004052207770575008
-0.9976451152381671 0.06858648007467678 0.0003446627191145779
-0.9983408995876406 0.05757919404542863 0.0002909013907051214
-0.9988497634088266 0.0479488363453443 0.0002433747276469186
-0.9992175501005145 0.03955056216404942 0.0002015034314309125
-0.9994797647490177 0.03225170888547792 0.0001647155553597866
-0.999663711665303 0.0259315643734791 0.0001324714822951615
-0.9997902423568678 0.02048073274095542 0.0001042803369844847
-0.9998751641316245 0.01580031012479379 7.970393134562662e-05
-0.9999303636500871 0.01180103569705314 5.837020551100656e-05
-0.9999646983380235 0.008402409115297603 3.998505198577107e-05
-0.9999846985603951 0.005531912407517068 2.429385355902926e-05
-0.9999951193593095 0.003124281361837377 1.11145066911311e-05
-0.9999993718920628 0.001120810153850779 2.798235075324064e-07
-0.9999998588894021 -0.0005311786446710205 -8.391848229233786e-06
-0.9999982348054737 -0.001878871518823546 -1.509145320860519e-05
-0.9999956059172405 -0.002964412817970937 -2.007125087613581e-05
-0.9999926833150771 -0.003825278718637038 -2.364394841953174e-05
-0.9999898987588764 -0.004494629709811672 -2.615307148193475e-05
-0.9999874910997979 -0.005001686175509056 -2.791653261590357e-05
-0.9999855698146755 -0.005372086019864276 -2.922693896298769e-05
-0.9999841611244999 -0.005628195439901816 -3.026912465010541e-05
-0.9999832398498503 -0.005789564284791212 -3.106104703146211e-05
-0.9999827515886326 -0.005873289480540268 -3.15579553291948e-05
-0.999982628141814 -0.00589426935407971 -3.167603913154167e-05
-0.9999827973799442 -0.005865489033109132 -3.134618871371352e-05
-0.9999831899320113 -0.005798182215504814 -3.060056786707321e-05
-0.9999837433748365 -0.005701939175722788 -2.959197756065549e-05
-0.9999844046716228 -0.005584764784945005 -2.856285009509294e-05
-0.9999851307437875 -0.005453212402538742 -2.767349924394794e-05
-0.9999858870978481 -0.005312709316684401 -2.69229588024286e-05
-0.9999866465736458 -0.00516778356468514 -2.621874284737341e-05
-0.9999873882649506 -0.005022217120241907 -2.542124643840374e-05
-0.9999880964787146 -0.004879170109684321 -2.449320281548309e-05
-0.9999887605560579 -0.004741118674378219 -2.356426544054538e-05
-0.9999893745113067 -0.004609809852133816 -2.275109321876791e-05
-0.9999899362120988 -0.004486311065597025 -2.208042736250977e-05
-0.99999044633514 -0.004371129701221279 -2.153095375160964e-05
-0.9999909067087089 -0.004264511451797424 -2.102310737702289e-05
-0.9999913199711437 -0.004166480821245884 -2.049233063630623e-05
-0.9999916912233768 -0.004076405906245599 -1.997743495712071e-05
-0.99999202824415 -0.003992876946734277 -1.954069289111348e-05
-0.9999923397252661 -0.003914092889481721 -1.91739423792182e-05
-0.9999926348779041 -0.003837946612555649 -1.886121602998282e-05
-0.9999929246022834 -0.003761701565407377 -1.862000702227729e-05
-0.999993222097619 -0.003681768666443746 -1.839316117837633e-05
-0.9999935427790402 -0.003593615803688338 -1.804657495563521e-05
-0.9999939038204274 -0.00349170648540067 -1.754425981667469e-05
-0.9999943233091332 -0.003369430476825191 -1.696379742083701e-05
-0.999994819180328 -0.003218904267522371 -1.636518325149469e-05
-0.9999954073184633 -0.003030692080054524 -1.573201311188838e-05
-0.9999960981770626 -0.002793457938727325 -1.494639480075333e-05
-0.999996891067218 -0.002493524567159502 -1.382503001127246e-05
-0.9999977644364395 -0.002114467650651497 -1.21933186503977e-05
-0.9999986606016175 -0.001636672469965305 -9.909418823241302e-06
-0.9999994624627926 -0.001036834726149199 -6.919262893067501e-06
-0.9999999586827407 -0.0002874440772331492 -3.227899321627486e-06
-0.9999997926708122 0.0006439385541805073 1.212832177731617e-06
-0.9999983879329919 0.001795574725401844 6.543892181754486e-06
-0.9999948397026907 0.003212537698460951 1.302019608426675e-05
-0.9999877592175834 0.004947825114438734 2.101506101422986e-05
-0.9999750522138685 0.007063567651792347 3.101450281746623e-05
-0.9999536070332146 0.009632335271979679 4.357144996109889e-05
-0.9999188613273028 0.01273841638939041 5.924356745856635e-05
-0.9998642069992009 0.01647911954973933 7.861758139577759e-05
-0.9997801828344962 0.02096605703080267 0.0001022937025100386
-0.9996533964184516 0.0263262206557959 0.0001309008629624582
-0.9994651062108973 0.03270281628452901 0.0001651481129591454
-0.99918939311598 0.04025561219763737 0.000205842446207575
-0.9987908570457396 0.04916054727056135 0.0002539171036437683
-0.9982217957695755 0.05960830540187621 0.0003104475487899066
-0.9974188690889917 0.07180151612482349 0.0003766529080760305
-0.9962993306568569 0.08595020502338695 0.0004538602604910845
-0.994757021109129 0.1022652119904417 0.0005434801208907686
-0.9926584567241159 0.1209494513150379 0.0006469317487470563
-0.9898395070369107 0.1421870747291603 0.0007655644252857139
-0.9861032613065848 0.1661311139442021 0.0009005665857511972
-0.981219721293855 0.1928905131314707 0.001052847513685924
-0.9749278127172025 0.2225180091629223 0.001222942607193005
-0.9669399015385929 0.2550004630119125 0.001410913266656165
-0.9569485878173651 0.2902529721920389 0.001616294539220505
-0.9446353167964946 0.3281169604625331 0.001838074431077956
-0.9296808461057814 0.3683601768112295 0.002074734594432277
-0.9117798670239967 0.4106727058762926 0.002324379045395444
-0.8906682278835462 0.4546464825155531 0.002585299792682085
-0.8661871022399299 0.4997116455956885 0.002859225286993577
-0.838455362448922 0.5449610430002828 0.003172820935698098
-0.8084050937437135 0.5886147785397576 0.003721141465931072
-0.7800593578465728 0.6256803379366916 0.005613640121980777
-0.925945046533145 0.3776391810988756 -0.003797327968707233
-0.9371331096142542 0.3489717168654559 -0.0005250644660695569
-0.9489536260720379 0.3154155776090015 0.0001701949180169218
-0.9595618103277894 0.2814978446937262 0.0003091815676439446
-0.9685214631218438 0.2489298443019689 0.0003287675773705228
-0.9758277114050112 0.2185410205979872 0.0003161804036955417
-0.9816473619219482 0.1907049320757804 0.0002927689376193613
-0.9862053019098631 0.1655265295646408 0.0002655092489041564
-0.9897292915612371 0.1429540943238897 0.000237364125448261
-0.9924252638212956 0.1228497118630785 0.0002098199000026863
-0.994468717113115 0.1050330278649911 0.0001836869800287206
-0.996004073887344 0.08930766705778263 0.0001593879221880565
-0.9971475629261062 0.07547661193392174 0.0001371185718879939
-0.9979913219650616 0.06335067176396013 0.000116916565917995
-0.9986075978884518 0.0527527790112781 9.872204826070099e-05
-0.9990525633219143 0.04351975330341256 8.241554610563879e-05
-0.9993695795948307 0.03550265874665622 6.784076240976267e-05
-0.9995918967916565 0.02856635891633897 5.483357615209434e-05
-0.9997448421455274 0.02258868596743623 4.323977802587409e-05
-0.9998475718937446 0.01745943567702047 3.292450322029421e-05
-0.9999144613239072 0.01307935279480685 2.378633002425752e-05
-0.9999562025126254 0.009359102933361802 1.577376716389925e-05
-0.9999806657694836 0.006218360629672791 8.848673942155884e-06
-0.9999935739762655 0.003584968206463319 3.022144597307121e-06
-0.9999990281907589 0.001394135808946928 -1.698157658543396e-06
-0.9999999150408347 -0.0004121769547053175 -5.336739299573538e-06
-0.99999822170019 -0.001885877355773772 -7.940805693693559e-06
-0.999995277485432 -0.0030732578873285 -9.632830823099897e-06
-0.9999919380741374 -0.004015429517204172 -1.060764217736295e-05
-0.9999887246558892 -0.00474873012459698 -1.110367600005916e-05
-0.9999859275501213 -0.00530514589399607 -1.134753265168201e-05
-0.9999836822377722 -0.005712716056996849 -1.155152521626298e-05
-0.9999820244482168 -0.005995885288266907 -1.18344832367317e-05
-0.9999809282841822 -0.006175995472920357 -1.215828081044861e-05
-0.9999803326893707 -0.006271688764614706 -1.242960560510339e-05
-0.9999801598220385 -0.00629919085938008 -1.252228324092413e-05
-0.9999803268098586 -0.006272626349781708 -1.23257413704525e-05
-0.9999807536745017 -0.006204203454147018 -1.183531095941852e-05
-0.9999813682920629 -0.006104338127011281 -1.116979184006345e-05
-0.9999821092270591 -0.005981731742451273 -1.054337317814318e-05
-0.9999829264599938 -0.005843516624181559 -1.009797389721766e-05
-0.9999837799105002 -0.005695596500368104 -9.819005241198817e-06
-0.9999846380079902 -0.005542892368536939 -9.603104211573699e-06
-0.9999854764602836 -0.005389506654419804 -9.301659138545514e-06
-0.9999862770225203 -0.005238863242797136 -8.863528668078547e-06
-0.9999870272242644 -0.005093654141459613 -8.40624435035305e-06
-0.9999877199743764 -0.004955788113061595 -8.039035442259188e-06
-0.999988352614929 -0.004826445256916353 -7.788562686306509e-06
-0.9999889257097521 -0.004706208610562417 -7.640003140354433e-06
-0.9999894412209023 -0.004595366170799278 -7.514216769255541e-06
-0.9999899021201191 -0.004493951935898124 -7.334303969944947e-06
-0.9999903141609253 -0.004401310414982935 -7.138914287630323e-06
-0.9999906861245581 -0.004315972085523551 -7.006555141086297e-06
-0.9999910279151693 -0.00423604072129458 -6.940487864943285e-06
-0.9999913501383143 -0.004159278857148595 -6.923805234660705e-06
-0.9999916654053543 -0.004082777380411936 -6.977645199126611e-06
-0.9999919890708314 -0.004002717123579893 -7.056214575364544e-06
-0.9999923391851721 -0.00391427149440086 -7.04522738866424e-06
-0.9999927360045489 -0.003811546941354439 -6.931838456540515e-06
-0.9999932011068549 -0.003687505062422548 -6.817561358133273e-06
-0.9999937562926914 -0.003533741585801876 -6.785088183124729e-06
-0.9999944215368581 -0.003340186869152978 -6.844220319732118e-06
-0.9999952112804078 -0.003094732383663521 -6.908362597245292e-06
-0.9999961280745904 -0.002782766434288238 -6.840981382576499e-06
-0.9999971516941303 -0.002386746954943418 -6.526801088639277e-06
-0.9999982219946926 -0.001885728695876665 -5.893923230254564e-06
-0.9999992126920454 -0.001254826933840346 -4.965375166065773e-06
-0.9999998920391594 -0.0004646579016137584 -3.834530467354494e-06
-0.9999998650909457 0.0005194338799963653 -2.556207421315876e-06
-0.9999984891146353 0.001738323102816308 -1.111817391890472e-06
-0.9999947506626243 0.003240161542192688 6.129197073554759e-07
-0.9999870887649722 0.005081564266277252 2.821904924841633e-06
-0.9999731432887931 0.007328892651933208 5.798868252490577e-06
-0.9999494005281809 0.01005963648387046 9.856142711308849e-06
-0.9999107006706647 0.01336377382794145 1.527662844740844e-05
-0.9998495612011572 0.01734515687571865 2.233404576579976e-05
-0.9997552589032286 0.02212286864959094 3.127380279214907e-05
-0.999612604109133 0.0278323537410732 4.232480911938325e-05
-0.9994003289566041 0.03462628153747527 5.575229539160089e-05
-0.9990890100192652 0.04267487425676586 7.187415216648849e-05
-0.9986384535091036 0.05216541838477832 9.109163990963182e-05
-0.997994497919775 0.06330062516843672 0.0001139084773910159
-0.9970852438111963 0.07629545667255229 0.0001409435832779029
-0.9958168162032704 0.09137197967419493 0.0001729080676728153
-0.9940689003306952 0.1087519059239101 0.0002106020874804463
-0.9916904653212059 0.1286466324346983 0.0002548611812390734
-0.9884962885749197 0.1512448132271024 0.0003065053139094776
-0.9842650357489861 0.1766980623739584 0.0003662722148051902
-0.978739708006922 0.2051058141179611 0.0004347246632548168
-0.9716311014307543 0.2365010368066195 0.0005121736548907133
-0.9626245373717395 0.2708387744317932 0.0005985934585186016
-0.9513895615954439 0.3079893196764858 0.0006935794433168477
-0.9375918877240007 0.3477367077334207 0.0007963472017199683
-0.9209071951166639 0.3897808582566834 0.0009058250613165289
-0.9010386598858255 0.4337375831813789 0.001020944235101733
-0.8777468745287136 0.4791232833974601 0.001141736182931292
-0.8509199876725235 0.5252937746837585 0.0012746991333627
-0.8207750346327315 0.5712496802010261 0.001464716308225703
-0.7885425866405685 0.6149769167202181 0.00199523319303762
-0.7593559889186385 0.6506608167881699 0.004357016174803047
-0.9006058309779276 0.4346182786483211 -0.004011118712558975
-0.9164219931776282 0.4002126104992709 -0.0007725397733900895
-0.9330047176110733 0.35986413430791 -4.188435432969386e-05
-0.9475076958186983 0.3197329335804966 0.0001324701858857184
-0.9594756642058392 0.2817914428814166 0.0001803207492039378
-0.9690715372369972 0.2467799006945092 0.0001906051697236875
-0.9766256278023557 0.2149473154941617 0.0001862297163441129
-0.9824930988535242 0.186298899752692 0.0001750889352705594
-0.987002027197013 0.1607077237746283 0.0001607114310912042
-0.990435430026597 0.1379769470938906 0.000144978202792823
-0.9930281287467589 0.1178775588293646 0.0001290044172464311
-0.9949701867892391 0.1001714257024462 0.0001134606775697406
-0.9964128724858345 0.08462492418442169 9.874871589862698e-05
-0.9974751387504047 0.07101647933098988 8.507814747110368e-05
-0.9982496777860723 0.05914030384624697 7.25325840910468e-05
-0.9988081891740456 0.04880776069591052 6.111230858957796e-05
-0.9992057762483462 0.03984738555033089 5.076163295100765e-05
-0.9994845284485522 0.03210413801874249 4.14010720127933e-05
-0.9996763937597717 0.02543829148849595 3.294850737404708e-05
-0.999805459348826 0.01972416828705157 2.53311455629828e-05
-0.9998897489821869 0.01484889012928194 1.850046623936869e-05
-0.9999426340401889 0.01071113783601923 1.245095356484151e-05
-0.9999739350796321 0.007220049150763869 7.184401474051114e-06
-0.9999907798282671 0.004294211325894943 2.74636823437684e-06
-0.9999982688725662 0.001860712549809231 -8.232005667624731e-07
-0.9999999893930189 -0.0001456076095589383 -3.519301289468471e-06
-0.9999984106387986 -0.001782888424942515 -5.361027344634604e-06
-0.9999951860739419 -0.003102867610109947 -6.444822428195152e-06
-0.999991382864345 -0.004151403242207183 -6.94087269823247e-06
-0.9999876546081278 -0.004968961801991868 -7.067224078809532e-06
-0.999984369616693 -0.005591106583845676 -7.033682223024479e-06
-0.9999817047936513 -0.006048969205175864 -7.038238954087222e-06
-0.9999797134954372 -0.006369658223006832 -7.190623140174069e-06
-0.9999783725722197 -0.006576802595923818 -7.445049425150335e-06
-0.999977614949868 -0.006691004399014961 -7.700993121827948e-06
-0.9999773521537502 -0.006730164809759418 -7.82353470997425e-06
-0.9999774887481407 -0.00670983888040124 -7.691622280562216e-06
-0.999977932004386 -0.006643451744759197 -7.290135638544397e-06
-0.9999785979291288 -0.006542448962714578 -6.72782363945531e-06
-0.9999794146753445 -0.006416399844697203 -6.211949787132911e-06
-0.9999803235257446 -0.006273159229643824 -5.884393124397601e-06
-0.9999812773385391 -0.006119227038366207 -5.730281851359883e-06
-0.9999822389436869 -0.005960013866061746 -5.646859011662545e-06
-0.9999831797226879 -0.005800020830766482 -5.483121800360338e-06
-0.9999840781294826 -0.005643001034056209 -5.182445513179975e-06
-0.999984919302178 -0.005491916299536262 -4.855365543848995e-06
-0.9999856946196356 -0.005348881644857947 -4.60799373364674e-06
-0.9999864006027054 -0.005215226711969796 -4.470756567190534e-06
-0.9999870374929611 -0.005091642792421604 -4.441280855269519e-06
-0.9999876072468673 -0.004978487018918529 -4.436995324787153e-06
-0.9999881131123456 -0.004875819414406926 -4.364407835204721e-06
-0.9999885615254208 -0.004782969805691196 -4.261077733251177e-06
-0.9999889623473907 -0.004698421600057283 -4.225710970405766e-06
-0.9999893268279975 -0.004620196086363392 -4.26754799147186e-06
-0.9999896671975633 -0.004545929946564014 -4.362017608949212e-06
-0.9999899981466348 -0.00447253689054485 -4.52282630669772e-06
-0.9999903377212229 -0.00439595746640498 -4.706090117333432e-06
-0.9999907073480145 -0.004311054919476181 -4.806074952449294e-06
-0.9999911313178151 -0.004211562942837832 -4.826398499570768e-06
-0.9999916359248551 -0.004089994688154058 -4.876719626566047e-06
-0.999992248416506 -0.003937395263557535 -5.04373791418877e-06
-0.9999929948697338 -0.003743017900285471 -5.334612158821523e-06
-0.9999938962174658 -0.003493922686927808 -5.662997824337518e-06
-0.9999949612798594 -0.003174488943060861 -5.902736208879971e-06
-0.9999961746730385 -0.002765972477269617 -5.961950558556373e-06
-0.9999974777241671 -0.002245999056113559 -5.79164388690825e-06
-0.9999987391292903 -0.001587989368831258 -5.440023907251599e-06
-0.9999997107693332 -0.0007605498310750966 -5.020352421795397e-06
-0.9999999626280925 0.0002733542357330661 -4.61248496028245e-06
-0.9999987872384498 0.001557402901645123 -4.222733083226321e-06
-0.9999950605922387 0.003143052171529295 -3.764501913216405e-06
-0.9999870417977271 0.005090798288909238 -3.067876513450912e-06
-0.9999720876839823 0.007471535942118885 -1.898146638974735e-06
-0.999946250607609 0.01036802275191227 -3.267141739396227e-09
-0.999903719172157 0.01387632435794903 2.828511323523542e-06
-0.9998360494296409 0.01810729727873937 6.796126269283822e-06
-0.9997311213715621 0.02318803173498415 1.205885290471589e-05
-0.9995717448158189 0.02926305886376037 1.875620495445444e-05
-0.9993338254002069 0.03649526926776727 2.705663205008073e-05
-0.9989839996643805 0.0450662515892294 3.717866072890429e-05
-0.9984766572161181 0.05517574242724364 4.941789706656484e-05
-0.9977502993733679 0.06703980893724681 6.417173563734145e-05
-0.9967232481936895 0.08088732777135309 8.195261028573517e-05
-0.9952888342977066 0.09695424506764973 0.0001033715327483819
-0.9933103561868777 0.1154751904750275 0.0001291381208062799
-0.9906163198751099 0.1366721668557977 0.0001600126063331029
-0.9869967199518856 0.160740275261651 0.0001967562628681761
-0.9822013201942278 0.1878310649952772 0.0002400655234484984
-0.9759409902908142 0.2180346282030064 0.0002904729960745712
-0.9678929816954698 0.2513623971430063 0.0003482630812939433
-0.9577105620167616 0.2877330508018587 0.0004133736728275308
-0.9450367034125675 0.3269639026601587 0.0004853455928838727
-0.9295209103523294 0.3687689790193512 0.0005633212240580348
-0.9108385624711814 0.4127622749048699 0.000646166223102847
-0.8887149284914821 0.4584596370438511 0.0007328560565539131
-0.8629647870609788 0.5052633941978549 0.0008238789121887078
-0.8335834870476965 0.5523927132420605 0.0009276197910864739
-0.8010012095035276 0.5986617257727156 0.001095659034195254
-0.7668776447813631 0.6417912586734079 0.001630406388522116
-0.7369734490170294 0.6759096766672579 0.004030438128303537
-0.8716692951868303 0.4900781822390848 -0.004001889769654468
-0.8919101187116141 0.4522118788100398 -0.0008699442097047564
-0.9135097872593956 0.4068167258962465 -0.0001418180220121959
-0.9324737122724114 0.3612378348488152 5.093768436359266e-05
-0.9480713484777017 0.3180577061978934 0.0001171486503321267
-0.9605092363042439 0.2782480669597409 0.0001421527534367081
-0.9702473761866909 0.2421156888736207 0.0001490103813161921
-0.9777750989639357 0.2096564676369579 0.0001463695953340454
-0.983536279026078 0.1807107320340318 0.0001384458774022372
-0.9879079185092324 0.1550416984329621 0.0001276470827073876
-0.99119913737882 0.1323792156065292 0.0001154767616669495
-0.9936579191606851 0.1124452271220034 0.0001028918753900589
-0.9954802734139607 0.09496850558247852 9.050467546798885e-05
-0.9968194737266097 0.07969272619638085 7.86815911844696e-05
-0.9977943847231848 0.06638042815615593 6.762163872918973e-05
-0.9984965586179304 0.05481440624646851 5.741076799817233e-05
-0.9989960810802225 0.04479763026064027 4.80560964271318e-05
-0.9993462904808758 0.03615231859758654 3.952380333470787e-05
-0.9995875352694186 0.02871860590287989 3.176481293981328e-05
-0.9997501392632 0.02235304076866385 2.473067395029994e-05
-0.9998567262382883 0.01692709832949468 1.839010128700747e-05
-0.9999240354148204 0.01232571446795475 1.275126829030579e-05
-0.9999643321190722 0.008445971134038194 7.826889832746838e-06
-0.999986501217985 0.00519589918440679 3.67116792753877e-06
-0.9999968915800777 0.002493357188984581 3.323192557522807e-07
-0.9999999648514919 0.000265126908170738 -2.176526084901146e-06
-0.9999987926078483 -0.001553952342457355 -3.868153669981233e-06
-0.9999954345710433 -0.003021723634101632 -4.832056002081757e-06
-0.9999912246466028 -0.004189343911095425 -5.232726792778302e-06
-0.9999869853888841 -0.005101864847557517 -5.284724308319586e-06
-0.9999831867684641 -0.005798806203939924 -5.195718970899112e-06
-0.9999800620471222 -0.006314703602350106 -5.162157661039016e-06
-0.9999776912968557 -0.006679586857466155 -5.293752197980653e-06
-0.9999760593899942 -0.006919582075664727 -5.545836164989139e-06
-0.9999750960732898 -0.007057421581929988 -5.816290341518788e-06
-0.9999747035540114 -0.007112820569324514 -5.967846017719306e-06
-0.9999747742531733 -0.007102874262375517 -5.876022550811568e-06
-0.9999752026045194 -0.007042311094971363 -5.521932878633347e-06
-0.9999758923780555 -0.006943676087965383 -5.009635863903305e-06
-0.9999767608267778 -0.006817461824932958 -4.544311385658271e-06
-0.9999777399904123 -0.006672293867415836 -4.267758657688025e-06
-0.9999787751363829 -0.006515309614353777 -4.167456862557942e-06
-0.999979823018766 -0.006352443483837146 -4.140246307353663e-06
-0.999980850264672 -0.006188625667383328 -4.036360225431994e-06
-0.999981831670992 -0.00602796097408501 -3.797714886216695e-06
-0.9999827496799115 -0.005873698164945946 -3.531264284487788e-06
-0.9999835938612741 -0.005728175726322507 -3.337360690120189e-06
-0.9999843596598914 -0.005592890578729331 -3.251344494944157e-06
-0.9999850467451946 -0.005468663022830501 -3.279281726256024e-06
-0.9999856568239174 -0.005355943921915071 -3.338169367858304e-06
-0.9999861932521471 -0.005254835302734533 -3.319654250505843e-06
-0.9999866630271121 -0.005164664293265684 -3.261618125231881e-06
-0.9999870769472723 -0.005083889034381928 -3.276538581514916e-06
-0.9999874474612392 -0.005010479868683378 -3.382315155208741e-06
-0.9999877883614648 -0.004941974845716235 -3.545454262314223e-06
-0.999988116443956 -0.004875136576684463 -3.771888425692323e-06
-0.9999884525677573 -0.004805696103886056 -4.012393142396518e-06
-0.9999888217738522 -0.004728245968932111 -4.171313776742862e-06
-0.9999892527941083 -0.004636192196267777 -4.266087727461666e-06
-0.9999897772616392 -0.004521653759239712 -4.415708550402229e-06
-0.9999904288132909 -0.004375186818028487 -4.702889254653878e-06
-0.9999912409995089 -0.004185438801338827 -5.128519084225469e-06
-0.999992243198834 -0.003938719442002906 -5.596490895403114e-06
-0.9999934531990422 -0.003618497369005319 -5.987084015880052e-06
-0.9999948641353407 -0.003204943718432629 -6.221142679637386e-06
-0.9999964237691202 -0.002674398938293761 -6.26805280604649e-06
-0.9999980024547501 -0.001998761667240908 -6.189241370083088e-06
-0.9999993446543315 -0.001144837796317833 -6.109577344237005e-06
-0.999999997282949 -7.34623525958208e-05 -6.11427736928974e-06
-0.9999992042204823 0.001261554499949763 -6.216559496186563e-06
-0.9999957524586908 0.002914622528514742 -6.331869238700667e-06
-0.999987750151032 0.004949697785084034 -6.301867977833378e-06
-0.9999723100892586 0.00744170812789946 -5.906802190729709e-06
-0.9999451032991148 0.01047808970676183 -4.921309724166251e-06
-0.9998997377646541 0.01416031101982155 -3.161846301420125e-06
-0.9998269037648908 0.01860544295888965 -4.636961758345337e-07
-0.9997132129485722 0.02394768976652928 3.299807924762797e-06
-0.9995396457703476 0.03033968466319912 8.235605223704251e-06
-0.9992795066848842 0.03795348877002028 1.448439785097096e-05
-0.998895783915378 0.04698097893441323 2.223614448515363e-05
-0.998337819488141 0.05763329914861137 3.176334750501427e-05
-0.9975372299678253 0.07013895451731093 4.344348068575577e-05
-0.9964030904894975 0.08474006091902038 5.777904874009238e-05
-0.9948165266915018 0.1016861472349266 7.537886050557887e-05
-0.9926250513229937 0.121224989517493 9.696652654900994e-05
-0.9896372446365428 0.1435900721431775 0.000123329266368163
-0.9856186918691252 0.168984526298216 0.0001552738270820719
-0.9802903620822533 0.1975620625178487 0.0001935518993694917
-0.9733307791198745 0.2294060535672533 0.0002387563525640413
-0.9643831904795575 0.2645089357894316 0.0002912181508285505
-0.9530684297885864 0.3027547605160929 0.0003508919505711276
-0.9390033019893115 0.3439078724429783 0.0004172827740913943
-0.9218235254243758 0.3876095308779856 0.0004894351053422621
-0.9012105061565335 0.433381244598119 0.0005660597756119814
-0.8769244364712232 0.4806278346480555 0.0006459730246721146
-0.8488563113664139 0.5286231458029558 0.0007296401798693324
-0.8171382209750863 0.5764411901976604 0.000825872372277993
-0.7824244213446478 0.6227447712579732 0.0009872964840396737
-0.7466894964503208 0.6651710341328889 0.001513684692703014
-0.7159464104180809 0.6981445362527874 0.003865735356255937
-0.8411553562408196 0.540779127010244 -0.003949994609793509
-0.8653809097877109 0.5011137484752192 -0.000944491454720837
-0.8917781091602611 0.4524729272960826 -0.0002325653946908234
-0.915302606380776 0.4027668531087398 -2.809698526571787e-05
-0.9348169872602553 0.3551298317032775 5.444318969891077e-05
-0.9504409506426776 0.3109051148723367 9.427439733360119e-05
-0.9626901913825555 0.2706059545165855 0.0001131193431747154
-0.9721579609872363 0.2343264486906281 0.000119721247054797
-0.9793974180235752 0.2019422775524135 0.0001187674104132744
-0.984883617411025 0.1732173413620059 0.0001131673597956349
-0.9890077402299716 0.1478637168839418 0.0001048545182571082
-0.9920839538291483 0.1255763493077435 9.51276173208315e-05
-0.9943604636443198 0.1060531052810827 8.486042833467124e-05
-0.9960310933928526 0.08900592916722205 7.461713928919316e-05
-0.9972458654253392 0.07416656726822403 6.474344502974283e-05
-0.9981200654816205 0.06128892077786535 5.543329200730918e-05
-0.9987417246243308 0.05014942977492463 4.677250149331146e-05
-0.9991776594286871 0.04054631172539466 3.878244050929364e-05
-0.9994782761532514 0.03229821215503634 3.145334344322842e-05
-0.9996813549315655 0.02524258285063948 2.476322692598066e-05
-0.9998150089091491 0.01923402220868048 1.869957502373568e-05
-0.9998999881352987 0.01414261470102734 1.328334840206144e-05
-0.9999514637375934 0.009852415751223071 8.538705389315803e-06
-0.9999804056083136 0.006260062215458929 4.526667488238245e-06
-0.9999946421697384 0.003273473708095703 1.303328513737303e-06
-0.9999996713187986 0.0008107780563226991 -1.112412967914859e-06
-0.999999279158385 -0.001200697822089079 -2.729427212554537e-06
-0.9999960088088063 -0.00282530587040929 -3.63264507162728e-06
-0.999991513467006 -0.004119827435036149 -3.983918623094127e-06
-0.9999868200979659 -0.0051341615079314 -3.996103584000873e-06
-0.9999825240107073 -0.005911992738892945 -3.876839422968251e-06
-0.9999789304690303 -0.006491425375680927 -3.821741161432049e-06
-0.9999761564678737 -0.006905539819960003 -3.941194321481459e-06
-0.9999742014904479 -0.007183058955827261 -4.192635064120717e-06
-0.9999729963091142 -0.00734892050350561 -4.472699003629842e-06
-0.9999724364415846 -0.007424711140591925 -4.643181141549441e-06
-0.9999724038072076 -0.007429105131964452 -4.579595532922437e-06
-0.9999727809806153 -0.007378162355906278 -4.259566197021086e-06
-0.999973460047733 -0.00728554636500959 -3.785212603809101e-06
-0.9999743476239863 -0.007162686836075734 -3.357266875748465e-06
-0.9999753665572414 -0.007018993445778329 -3.117461061670224e-06
-0.999976454467575 -0.006862251899388692 -3.054042669175692e-06
-0.9999775619092653 -0.006698930408001025 -3.064215916385119e-06
-0.9999786505896541 -0.006534397898463016 -2.9997606058168e-06
-0.9999796914853376 -0.006373116114690856 -2.806611903153865e-06
-0.9999806641594854 -0.006218625287831874 -2.585340992023991e-06
-0.9999815561515194 -0.006073495770275989 -2.431805990032164e-06
-0.9999823615983484 -0.005939401191621958 -2.382107100369032e-06
-0.9999830793262026 -0.005817306531067215 -2.451250679979686e-06
-0.9999837105209582 -0.005707774190026515 -2.55564981016211e-06
-0.9999842584266349 -0.005610961796439489 -2.579138177627818e-06
-0.9999847303949008 -0.0055262076067343 -2.554252142050429e-06
-0.9999851378937996 -0.005451970719247713 -2.606630786613932e-06
-0.9999854943105849 -0.005386200961092463 -2.760685273435219e-06
-0.9999858147930882 -0.005326368718145613 -2.980119156376338e-06
-0.9999861180871639 -0.005269119693931098 -3.258190583159312e-06
-0.9999864277455237 -0.005210020364800514 -3.54182266477381e-06
-0.9999867723955852 -0.005143444357612967 -3.741654760264367e-06
-0.9999871852905597 -0.005062532913587012 -3.893910483485789e-06
-0.9999877036603413 -0.004959083698327241 -4.121899455281958e-06
-0.9999883680422806 -0.004823251996410589 -4.507208409903591e-06
-0.99998922035657 -0.004643182665278195 -5.039407031621773e-06
-0.9999902998599363 -0.004404560647175667 -5.616000801749773e-06
-0.9999916355139906 -0.004090093473574074 -6.118087245266105e-06
-0.9999932322532644 -0.003679049560106355 -6.480937470072539e-06
-0.9999950491079845 -0.003146699035770758 -6.685638670571045e-06
-0.9999969651126976 -0.002463679969638069 -6.811802017656462e-06