# OOMMF: rectangular mesh v1.0
# Segment count: 1
# Begin: Segment
# Begin: Header
# Title: 
# Desc: time = 1.3552203002760768e-10
# Desc: stepsize = 4.618886084975014e-13
# Desc: step = 280
# meshunit: m
# valueunit: (none)
# valuemultiplier: 800000.0000000002
# xmin: 0
# ymin: 0
# zmin: 0
# xmax: 4e-07
# ymax: 1e-07
# zmax: 4e-09
# ValueRangeMaxMag: 1
# ValueRangeMinMag: 0.9999999999999996
# meshtype: rectangular
# xbase: 2e-09
# ybase: 2e-09
# zbase: 1e-09
# xstepsize: 4e-09
# ystepsize: 4e-09
# zstepsize: 2e-09
# xnodes: 100
# ynodes: 25
# znodes: 2
# End: Header
# Begin: Data Text
-0.9445814302373797 0.3282712516026713 -0.001976618810347538
-0.9513445729272456 0.3081276362502881 0.0009291612812035705
-0.9595604575129072 0.281499121202802 0.001404684900510727
-0.9675151851002922 0.2528091262472145 0.001382854463362788
-0.9744963446546915 0.2243998060590295 0.001265422978301354
-0.9803068092972861 0.1974772869205058 0.001131722532251845
-0.9849899995804692 0.1726085134132054 0.001000911459639373
-0.9886851841359443 0.1500027820300876 0.0008786656402092747
-0.9915566293823517 0.1296721361769589 0.0007666989065694665
-0.9937615674536852 0.1115235597576768 0.0006653352314103652
-0.9954376858215748 0.09541217838954011 0.0005743353984050109
-0.996700014923709 0.08117165192901202 0.0004931269542910997
-0.9976420151460056 0.06863113301186938 0.0004209476495086372
-0.9983382634441405 0.05762451104909104 0.0003570289770953346
-0.9988475219021445 0.04799518296090564 0.0003006700741082644
-0.9992156533501998 0.03959816900964885 0.0002512190611503358
-0.9994781750712538 0.0323006853523246 0.0002080432784638845
-0.9996623991688477 0.02598189027615225 0.000170486543303401
-0.9997891832531633 0.02053217068806503 0.0001379014435054138
-0.9998743375368775 0.01585235295626408 0.0001097312165037892
-0.9999297476895637 0.01185294767505047 8.553886493771141e-05
-0.9999642676280582 0.008453357447338094 6.492263083540388e-05
-0.9999844245638502 0.005581072982127074 4.747708260822848e-05
-0.9999949722095626 0.003170880263955247 3.277113507163065e-05
-0.9999993221331684 0.001164180776534011 2.040399386116402e-05
-0.9999998791248151 -0.0004915782147937598 1.006049183066097e-05
-0.9999983009752381 -0.001843378545366528 1.474758734427113e-06
-0.9999956983358803 -0.002933134653580441 -5.553227627145131e-06
-0.9999927871888824 -0.003798084443800761 -1.116995427183074e-05
-0.9999900042073788 -0.004471156853181331 -1.554735437500452e-05
-0.9999875921625418 -0.004981481875463904 -1.895482856339517e-05
-0.9999856626811373 -0.005354807419312606 -2.167183944026339e-05
-0.9999842423177762 -0.005613781792133114 -2.387745640306149e-05
-0.9999833059204503 -0.005778167569530244 -2.568939716990075e-05
-0.999982799705207 -0.005865113349132933 -2.718707602323104e-05
-0.999982656667283 -0.00588944470202994 -2.838562759349579e-05
-0.9999828071902572 -0.005863826936036972 -2.928406622878171e-05
-0.9999831847754453 -0.00579907491247592 -2.994188789818263e-05
-0.9999837286531212 -0.005704515891357997 -3.045399513386241e-05
-0.9999843859085447 -0.005588111222311618 -3.085575109709784e-05
-0.9999851118767596 -0.005456652265575062 -3.115889144892913e-05
-0.9999858698216075 -0.005315935806312338 -3.136280662626572e-05
-0.9999866308763845 -0.005170791554688714 -3.135594844116749e-05
-0.9999873733321012 -0.005025158012061444 -3.103736445696474e-05
-0.999988081749311 -0.004882154849244567 -3.038685163674504e-05
-0.9999887458826436 -0.004744180034953378 -2.939137766834981e-05
-0.999989359872833 -0.004612954460115444 -2.814728779731726e-05
-0.9999899213506188 -0.004489596445651851 -2.685028511952942e-05
-0.9999904304267875 -0.004374745251841154 -2.56676649867417e-05
-0.9999908894401109 -0.004268538773073136 -2.476929688953423e-05
-0.9999913024586514 -0.004170661579223489 -2.427016993883229e-05
-0.9999916747984166 -0.004080410720074794 -2.41290905198283e-05
-0.9999920132006664 -0.003996616933205937 -2.424803868397198e-05
-0.9999923257676248 -0.003917627783187759 -2.446239183945338e-05
-0.9999926218885521 -0.00384129751801915 -2.453236231078052e-05
-0.999992912661928 -0.003764841913245331 -2.431627502625561e-05
-0.9999932111825536 -0.003684701564378189 -2.373154718129929e-05
-0.9999935324822629 -0.003596453379490772 -2.273178547850694e-05
-0.9999938936183547 -0.003494605514193099 -2.140799474344941e-05
-0.9999943132649907 -0.003372394344195714 -1.98511036766614e-05
-0.9999948102292442 -0.00322167467564309 -1.807931648706456e-05
-0.9999954011909959 -0.003032711219312923 -1.610957993773034e-05
-0.9999960969514142 -0.002793902209727254 -1.387011737904241e-05
-0.9999968961007084 -0.00249151830351995 -1.120230603555802e-05
-0.9999977753312957 -0.002109328962743321 -7.98659277307688e-06
-0.9999986747867512 -0.001628007250007488 -4.139411619759023e-06
-0.9999994751683123 -0.00102453058721196 4.185304603590643e-07
-0.9999999631110348 -0.0002715598680323689 5.759050441454116e-06
-0.9999997798704334 0.0006634123949334906 1.196153896725595e-05
-0.9999983456693566 0.001818870108454066 1.923740870688948e-05
-0.9999947505793605 0.003240066687759571 2.795678022203538e-05
-0.9999875986399264 0.004980068613995106 3.850913480694345e-05
-0.9999747864495991 0.007100973960080441 5.132150136051469e-05
-0.9999531923383971 0.00967515686072651 6.687277672568899e-05
-0.9999182443523928 0.0127866054286056 8.563200944008184e-05
-0.9998633250330713 0.01653237948151447 0.000108085566913143
-0.9997789635437596 0.02102393572643456 0.000134840408909897
-0.9996517574071586 0.02638818141399496 0.0001667166488831899
-0.999462957131661 0.03276820747890107 0.0002046955180407435
-0.999186639446402 0.04032365501166037 0.0002497965289453465
-0.9987874008533524 0.04923043826544236 0.0003030590653529265
-0.9982175324872864 0.05967934468462172 0.0003655858407047774
-0.997413680448663 0.07187320581780512 0.0004385650736184191
-0.9962930743028955 0.08602230096372604 0.0005232905417546051
-0.994749525062914 0.1023376597350379 0.0006211175910959734
-0.9926495211915056 0.1210222720438728 0.0007333127661429963
-0.9898289024603105 0.1422603339897501 0.0008609456087553874
-0.9860907234750478 0.1662049197626609 0.001004849811864205
-0.981204944044254 0.1929650206765876 0.00116558071188389
-0.9749104486521588 0.2225933790848154 0.001343389909724477
-0.9669195888855479 0.2550767390143701 0.001538129772611083
-0.9569249878944761 0.2903299986462226 0.001749122420123859
-0.9446081220445838 0.3281944460321157 0.001975186339783453
-0.9296497771148491 0.3684377645863904 0.002214844666023786
-0.9117447068527734 0.4107499311455809 0.002466493432013287
-0.8906288773250217 0.4547227243547317 0.00272888808518818
-0.8661436112033528 0.4997861725707539 0.003004409874042541
-0.838407970779118 0.5450330705380622 0.00332062552731179
-0.8083543331237599 0.588683504003412 0.003873529954141378
-0.7800062108185911 0.6257451480733552 0.00577241258725602
-0.9259044294722659 0.3777430436857896 -0.003343715094440449
-0.93709793390623 0.3490665340787457 -0.0001305945110751094
-0.9489250903122431 0.3155010582301694 0.0005052044573230662
-0.9595391148548722 0.2815747419027709 0.0005931154320612497
-0.9685034988880593 0.2489992918431974 0.00057035355056192
-0.9758134652378584 0.2186042261941113 0.0005228293760217586
-0.9816359938986897 0.1907630838337118 0.0004704559314779462
-0.986196143376056 0.1655807696194032 0.0004189539821315473
-0.9897218312648264 0.1430054531494574 0.0003702530436222665
-0.9924191227989761 0.1228990602540195 0.0003251024285777196
-0.9944636103239691 0.1050811457581644 0.0002838090343303333
-0.9959997822120168 0.08935531951068389 0.0002463914733931956
-0.9971439243558122 0.0755244919847765 0.000212675177476274
-0.9979882224674116 0.06339932593667051 0.0001824475583047135
-0.9986049587014797 0.05280257825690363 0.0001555192577507985
-0.9990503275500526 0.04357092696246585 0.0001317033161143501
-0.9993677040079484 0.03555530778982368 0.0001107874183578772
-0.99959034682086 0.02862044701426439 9.249462636019196e-05
-0.9997435899470505 0.02264395072738862 7.651953124421537e-05
-0.9998465927868625 0.01751533534357986 6.261232661403232e-05
-0.9999137294555555 0.01313510886263538 5.061075842236401e-05
-0.9999556880814823 0.00941383261773379 4.036005539698304e-05
-0.999980335404266 0.006271188190442068 3.167729936197038e-05
-0.9999933928196191 0.003635068790586984 2.433093103206612e-05
-0.9999989618887584 0.001440796263966243 1.809780695325821e-05
-0.9999999316381247 -0.0003695394297333311 1.282010206283349e-05
-0.9999982930892231 -0.001847633228823744 8.372079970506302e-06
-0.9999953805908564 -0.00303953533594102 4.678599766539846e-06
-0.9999920554538946 -0.003986104137291738 1.703279955891903e-06
-0.9999888445286294 -0.004723432851504984 -6.273572123937105e-07
-0.9999860426886075 -0.005283410051118794 -2.492015395525474e-06
-0.9999837880141169 -0.005694180557110245 -4.089040850360391e-06
-0.9999821168117919 -0.005980470386627945 -5.528315510898654e-06
-0.9999810033344542 -0.0061638399600368 -6.867663633695561e-06
-0.9999803872784763 -0.00626298588870143 -8.133008305506495e-06
-0.9999801921749306 -0.006294058423401834 -9.292534366017352e-06
-0.9999803379513585 -0.006270853568574391 -1.030571210263048e-05
-0.999980747817086 -0.006205148654313715 -1.119637422288873e-05
-0.9999813515037321 -0.006107086055618743 -1.202821635063831e-05
-0.9999820877482727 -0.005985316901754828 -1.281372388021151e-05
-0.9999829047818654 -0.005847218186243421 -1.354639130832508e-05
-0.9999837600128193 -0.005699079636959431 -1.420969069503265e-05
-0.9999846199357261 -0.005546140683612813 -1.468054449186858e-05
-0.9999854592977437 -0.005392677684369435 -1.484832341675181e-05
-0.9999862600892586 -0.005242081373335272 -1.468238018581934e-05
-0.9999870103190542 -0.00509695915391278 -1.416130249323948e-05
-0.9999877030524418 -0.00495918995556865 -1.337482377752516e-05
-0.9999883353790354 -0.004830005107390504 -1.251110431905201e-05
-0.9999889072750767 -0.004710115620363007 -1.173202501648463e-05
-0.9999894212694092 -0.004599698216676622 -1.120657142244411e-05
-0.9999898818900032 -0.004498443672681958 -1.105172729310632e-05
-0.9999902951444306 -0.004405620368398529 -1.123046758610779e-05
-0.999990668676178 -0.0043200028732837 -1.165097147742682e-05
-0.9999910117190243 -0.004239850629545431 -1.215734805482731e-05
-0.9999913350675106 -0.004162887594606889 -1.252086604866818e-05
-0.9999916515473753 -0.004086156698896313 -1.260888869320564e-05
-0.9999919763696836 -0.004005876158988451 -1.234718347518147e-05
-0.9999923271381355 -0.003917336835309357 -1.170363063919056e-05
-0.9999927239998812 -0.003814686219675332 -1.078621306113621e-05
-0.9999931892363011 -0.003690716304906592 -9.703982609828112e-06
-0.9999937456719508 -0.003536742100323348 -8.502767774531979e-06
-0.9999944142208675 -0.00334237560959544 -7.235189308882591e-06
-0.9999952097427565 -0.003095231349534137 -5.867949621247315e-06
-0.9999961339778455 -0.002780649381660685 -4.28706215238695e-06
-0.9999971647122311 -0.002381294104219238 -2.426478475740183e-06
-0.9999982393367796 -0.001876518923270376 -2.667784162048787e-07
-0.9999992290513504 -0.00124172938858608 2.197687351813992e-06
-0.9999998997611834 -0.0004477198873742676 4.952285508220562e-06
-0.9999998540428057 0.000540232253126552 7.967418433681796e-06
-0.9999984454372047 0.001763234221226925 1.132494845282022e-05
-0.999994654634029 0.003269628553033555 1.524774188870462e-05
-0.9999869124936603 0.005116096479585721 1.995513512759362e-05
-0.999972848576733 0.007368951768343661 2.567429390615413e-05
-0.9999489378890516 0.01010547122187221 3.264875600950979e-05
-0.9999100097170571 0.01341531886926057 4.107639431303629e-05
-0.9998485709382966 0.0174020854484047 5.113405791390813e-05
-0.9997538875405794 0.02218468771755101 6.307434418006552e-05
-0.9996107586222027 0.02789848147914345 7.731689049874266e-05
-0.9993979073997907 0.03469601957183456 9.439698140543299e-05
-0.9990859057889417 0.04274739366489681 0.000114842274724902
-0.998634556537639 0.05223986145281564 0.0001391555357203799
-0.9979896915686333 0.06337623643588906 0.0001678629392431844
-0.9970793974781844 0.07637168652797713 0.0002015475444734593
-0.9958097741785495 0.09144854085220268 0.0002408868373605645
-0.9940604762386082 0.1088287068015019 0.0002866290003228942
-0.9916804447451738 0.1287236585704931 0.0003394616928704144
-0.9884844277510633 0.1513220940641943 0.0003999270927564801
-0.9842510569947708 0.1767756697021334 0.000468407982479586
-0.9787232924516447 0.2051838679549862 0.0005451088356663252
-0.9716118906941501 0.2365796628950577 0.0006300525369640571
-0.9626021646747127 0.2709179762123127 0.0007229997106523308
-0.9513636949650683 0.30806889170479 0.0008233262987782152
-0.9375622398867985 0.3478163039703572 0.0009300703461547958
-0.9208735194292063 0.3898600710907536 0.001042201122226719
-0.9010007840580561 0.4338159102066071 0.001158955728574934
-0.8777047514488884 0.4792000925133782 0.001280866587266144
-0.8508737085744544 0.5253683749105881 0.001415168033084442
-0.8207248311507432 0.5713214212889455 0.001607827404533593
-0.7884888653686845 0.6150452944139837 0.002143597168421777
-0.7592994548912724 0.6507257227161185 0.004513490600518074
-0.9005593433827138 0.4347184291344288 -0.003571612659508307
-0.9163815012232351 0.4003058752712245 -0.000387864909843845
-0.9329715483972656 0.3599500066684028 0.0002873684479806304
-0.9474810827078332 0.3198115487731503 0.0004137415987918803
-0.9594544404531572 0.2818634405095176 0.0004214247929149753
-0.9690545975516126 0.2468461634232831 0.0003982050821035926
-0.976612035405983 0.2150088336256931 0.0003657363825583169
-0.982482096472667 0.186356702770505 0.0003308219736647641
-0.9869930292275558 0.1607627835905263 0.0002960885645974247
-0.9904279982641967 0.1380301097677953 0.0002627772189772047
-0.9930219315282725 0.1179295971365052 0.0002315665779352351
-0.9949649682774072 0.1002231050487713 0.0002027686378752241
-0.996408442748713 0.08467693951827256 0.0001764451841221542
-0.9974713630916568 0.07106937831070261 0.0001525732665767952
-0.9982464622325136 0.05919445454611341 0.0001311154406225098
-0.9988054651412873 0.04886338361210483 0.0001120083583462741
-0.9992034910481226 0.03990456646987315 9.514250058074133e-05
-0.9994826394594762 0.03216281963022673 8.03277765825177e-05
-0.9996748661787881 0.02549818418265945 6.733356331081255e-05
-0.9998042621501635 0.0197846974518891 5.597413584793058e-05
-0.9998888500740085 0.01490923769282542 4.614211956030082e-05
-0.9999419971304132 0.01077037377049555 3.773173615452771e-05
-0.9999735200272638 0.007277245883172957 3.060455615130793e-05
-0.9999905449668958 0.004348490915104307 2.456770312834909e-05
-0.9999981732557552 0.001911310456496005 1.942912222386489e-05
-0.9999999949542402 -9.932192576178923e-05 1.505571629998931e-05
-0.9999984838233139 -0.001741327766829786 1.134379861443979e-05
-0.9999952991912104 -0.003066191058711912 8.23847325912103e-06
-0.9999915148006477 -0.004119501668069024 5.719460501664224e-06
-0.9999877908700062 -0.00494146709302493 3.727377848603437e-06
-0.9999845011088218 -0.005567543239784826 2.10079176834601e-06
-0.9999818256801769 -0.006028955872052125 6.580834292038715e-07
-0.9999798189384155 -0.006353087076646324 -6.998582234807986e-07
-0.9999784581199498 -0.006563786404321565 -2.021404842439407e-06
-0.9999776770946425 -0.006681713955437814 -3.319644780837612e-06
-0.9999773889841427 -0.006724693283379215 -4.549798289403355e-06
-0.9999775014645799 -0.006707945482680772 -5.661882961481037e-06
-0.999977925320932 -0.006644458320005583 -6.669159520865156e-06
-0.9999785786459875 -0.006545394641136292 -7.625088310061743e-06
-0.9999793898440414 -0.006420265898540571 -8.539919684807313e-06
-0.9999802982812459 -0.006277177778490302 -9.406756140611532e-06
-0.9999812540182197 -0.006123030947103341 -1.020634268993183e-05
-0.9999822176962957 -0.005963570592142769 -1.081620025677165e-05
-0.9999831595376868 -0.005803491814313482 -1.112591085486608e-05
-0.9999840581957775 -0.005646523806001698 -1.110006260892183e-05
-0.9999848993625603 -0.005495537467599974 -1.071409531369522e-05
-0.9999856745989594 -0.005352615783558271 -1.005672085953905e-05
-0.9999863801477301 -0.005219140954985273 -9.312940134249734e-06
-0.9999870156608016 -0.005095923379088483 -8.6439261718933e-06
-0.9999875837392248 -0.004983201761627596 -8.221260120133764e-06
-0.9999880893100351 -0.004880693742484838 -8.164370385469704e-06
-0.9999885390818519 -0.004787654300804131 -8.44032740470593e-06
-0.9999889416697912 -0.004702813819360147 -8.961644143609186e-06
-0.9999893075820077 -0.004624351844433286 -9.574737915028483e-06
-0.9999896492649036 -0.004549863953528249 -1.005280552695474e-05
-0.9999899816305884 -0.004476218622408352 -1.026155601016973e-05
-0.9999903225204843 -0.004399404836315639 -1.012243471462928e-05
-0.9999906928298736 -0.004314413213182045 -9.604938466472588e-06
-0.9999911167590635 -0.004215011881769477 -8.82027252940563e-06
-0.9999916214681973 -0.004093523093421829 -7.879662396929857e-06
-0.9999922354367364 -0.003940687688342728 -6.839702119300446e-06
-0.9999929858697338 -0.003745420947398615 -5.76718758278931e-06
-0.9999938942152238 -0.003494497209481903 -4.639437488171674e-06
-0.9999949683748119 -0.003172256895240974 -3.353937921394765e-06
-0.9999961907058572 -0.002760175777789777 -1.857423743373353e-06
-0.9999974997305294 -0.002236187082456852 -1.466831876643875e-07
-0.9999987612496763 -0.001574006350459033 1.766641398107842e-06
-0.999999724396611 -0.0007424229842914104 3.848877288839546e-06
-0.9999999562734315 0.0002956630835129023 6.039495577244401e-06
-0.9999987451613186 0.001584173446070732 8.383350500167241e-06
-0.9999949603612679 0.003174764487220592 1.106871512317e-05
-0.9999868516663544 0.005127990886357721 1.427870508175729e-05
-0.9999717642360317 0.0075146789401324 1.81962701623241e-05
-0.9999457376605602 0.01041735115584409 2.300812032401991e-05
-0.9999029481208114 0.01393174458347393 2.884736052317601e-05
-0.99983493959644 0.01816844184558074 3.582019592830583e-05
-0.9997295798813925 0.02325435799070237 4.409777691869251e-05
-0.9995696660952846 0.02933393436153634 5.400957244595193e-05
-0.9993310935887144 0.03656994710594744 6.599584718118133e-05
-0.9989804933573367 0.04514385244721571 8.048450607368476e-05
-0.9984722511799906 0.05525535308555619 9.787211846232087e-05
-0.9977448617379769 0.06712061394071998 0.0001185735450252198
-0.996716632918388 0.08096871739936219 0.0001430612920945095
-0.9952808693900376 0.09703587724420881 0.0001719117733248411
-0.9933008382409431 0.1155569227737224 0.0002057885017129525
-0.990605017897854 0.1367539335420627 0.0002453087134576592
-0.9869833750450546 0.1608220529933771 0.0002909564712486441
-0.9821856416659589 0.1879128723917515 0.0003430666253708201
-0.9759226484573508 0.2181165348703852 0.000401801101968949
-0.9678716103932976 0.2514444820918756 0.000467140484880085
-0.9576857940387341 0.2878152699163657 0.0005387943656786157
-0.9450082204239783 0.3270459964496998 0.0006160660096406434
-0.9294884550058826 0.3688505455372142 0.0006979023401805856
-0.9108019320888453 0.4128428600480927 0.0007832052968359411
-0.8886740064844839 0.4585387127292744 0.0008712791717389796
-0.8629195883004935 0.5053403372284104 0.0009631703809733145
-0.8335341537286803 0.5524668983036616 0.001068104182132988
-0.8009479880518645 0.5987326494701897 0.001238908421503762
-0.7668209122520917 0.6418586464309322 0.001779475968024468
-0.7369139152744124 0.6759736222410855 0.004188497248659375
-0.8716180278849476 0.4901726560411939 -0.003575015451085263
-0.891864908301543 0.452301605348046 -0.0004930921416435316
-0.9134721108770973 0.4069013008686412 0.0001843939990120562
-0.9324430169890505 0.3613169097744937 0.0003328353456221645
-0.948046561275386 0.3181313990603925 0.0003613665624824488
-0.9604892521287868 0.2783168535268036 0.0003543840049307187
-0.9702312102183026 0.2421802783035355 0.0003339448302492261
-0.9777619279277916 0.2097177091673008 0.0003078255142849838
-0.9835254513139983 0.1807694899318974 0.0002795127140281627
-0.9878989382019836 0.1550987586939174 0.0002509003762815251
-0.9911916247486359 0.1324353171728472 0.0002231445412857609
-0.9936515790014218 0.1125011145581186 0.0001969039417723063
-0.9954748848263021 0.09502485952167435 0.000172490424432919
-0.9968148785156645 0.07975008120543234 0.0001500584134243677
-0.9977904711083254 0.06643913714351757 0.0001296959916459566
-0.9984932439470874 0.05487466970756361 0.0001114293837949091
-0.9989933008837915 0.04485951096075377 9.521380446229452e-05
-0.9993439918657965 0.03621573381720668 8.090621661161932e-05
-0.9995856743933085 0.0287832395915541 6.831024333537334e-05
-0.9997486769282001 0.02241828943267415 5.726452182984778e-05
-0.9998556225379802 0.01699211010475594 4.767992518671877e-05
-0.9999232462009916 0.01238951771693859 3.946659919797657e-05
-0.9999638092596116 0.008507591593690907 3.250048503744368e-05
-0.9999861951352962 0.005254410651110736 2.659967509144685e-05
-0.9999967537423722 0.002547948033616848 2.157625855454581e-05
-0.999999950199745 0.0003151211627027947 1.72962349292892e-05
-0.9999988613492363 -0.001509010850893309 1.365586218921596e-05
-0.9999955536838412 -0.002982029536988711 1.060132637158035e-05
-0.9999913687111495 -0.004154808951295943 8.110472595266274e-06
-0.9999871366512771 -0.005072129189424551 6.120894553604007e-06
-0.9999833338301375 -0.005773390854090769 4.473184556285584e-06
-0.9999801975585234 -0.006293209187758239 2.989154745054409e-06
-0.9999778094683308 -0.006661874245281414 1.56781548948935e-06
-0.9999761551477203 -0.006905732108653171 1.601206038464199e-07
-0.9999751655264483 -0.007047576094947324 -1.240043466932777e-06
-0.9999747446721221 -0.007107039557477427 -2.579239711998292e-06
-0.9999747884224757 -0.007100880576318515 -3.803308406535019e-06
-0.9999751950149173 -0.007043389147047057 -4.919423491973958e-06
-0.9999758705260452 -0.006946821574415841 -5.974180522541178e-06
-0.9999767325365184 -0.006821608085065219 -6.98010565382012e-06
-0.9999777110201048 -0.006676630890741372 -7.933478570021435e-06
-0.9999787481850554 -0.006519440203487502 -8.813779711140476e-06
-0.9999797983624656 -0.006356317856096368 -9.50127341586462e-06
-0.9999808268257344 -0.006192405279575584 -9.888073081612982e-06
-0.9999818085087785 -0.006031795156885593 -9.934663120191921e-06
-0.9999827264654371 -0.005877642241466126 -9.614134784559037e-06
-0.9999835704658098 -0.005732252364170973 -9.015757510012282e-06
-0.9999843356489199 -0.005597176745850049 -8.32248318251331e-06
-0.9999850211298659 -0.005473340538512078 -7.697451626267289e-06
-0.9999856293849294 -0.005361060537213831 -7.31725732019749e-06
-0.9999861655435126 -0.005260101542498456 -7.303740625257598e-06
-0.999986636841564 -0.005169727274670572 -7.629098205799893e-06
-0.9999870527197262 -0.005088646725600342 -8.210787534184449e-06
-0.9999874248490698 -0.005014984010821978 -8.893647704382734e-06
-0.999987767265304 -0.004946233970594832 -9.447738963996671e-06
-0.9999880969687629 -0.004879121439772391 -9.734865426543081e-06
-0.9999884345419572 -0.004809437473995677 -9.670008163365658e-06
-0.999988804419264 -0.004731907768113696 -9.219797480290434e-06
-0.9999892352594275 -0.00463996692793885 -8.495426880137915e-06
-0.9999897597531306 -0.004525519967164181 -7.609348392308363e-06
-0.9999904130206989 -0.004378792388704577 -6.626322658251454e-06
-0.9999912299585876 -0.004188075251475495 -5.621273924080059e-06
-0.9999922405648513 -0.003939389437398837 -4.576967754502075e-06
-0.9999934616121806 -0.003616174959742999 -3.39836678055032e-06
-0.9999948837109042 -0.003198835392304152 -2.036710719921407e-06
-0.9999964514769495 -0.002664025762637202 -4.944631758118488e-07
-0.9999980319814459 -0.001983943490954329 1.208217312952347e-06
-0.9999993665332745 -0.001125577127890135 3.029579700825404e-06
-0.9999999987531729 -4.969607231768639e-05 4.894295970712068e-06
-0.9999991677506375 0.001290136189294987 6.829729872861421e-06
-0.9999956530283104 0.00294853239313108 9.011614873925681e-06
-0.9999875523156625 0.004989496854681768 1.161322491190536e-05
-0.9999719654191901 0.007487867286179297 1.480494112515554e-05
-0.9999445491710299 0.01053082292466206 1.875298364622396e-05
-0.9998988976868043 0.01421948836405086 2.356646323510457e-05
-0.9998256877649221 0.01867065144249249 2.932768314630884e-05
-0.9997115174865309 0.02401833665763233 3.617980012872666e-05
-0.9995373531564737 0.03041508953870031 4.44218746303961e-05
-0.9992764875651053 0.0380328599112462 5.446574013904101e-05
-0.9988919024528924 0.04706339090233901 6.671442755750681e-05
-0.9983329356418038 0.05771778724013463 8.154091021833463e-05
-0.9975311970845278 0.07022464649166005 9.933896417286477e-05
-0.9963957479396551 0.08482628691170482 0.0001205676065987512
-0.9948076877230121 0.1017725070364385 0.0001458036765438076
-0.9926144979425556 0.12131128386558 0.0001757302833644209
-0.9896247326488282 0.1436761775973606 0.0002109993990478028
-0.9856039516870498 0.1690703606324615 0.0002521398031162449
-0.9802730953442714 0.1976475874447349 0.0002995353673507926
-0.973310651477877 0.2294912870541992 0.0003533920164657557
-0.964359834483956 0.2645939123875917 0.000413716695375556
-0.9530414837745809 0.3028393957227954 0.0004802114084660743
-0.9389724658782993 0.3439918654402283 0.0005521171773092068
-0.921788575271418 0.3876924396925782 0.000628254968499162
-0.901171286002686 0.4334625853835067 0.0007073591099827619
-0.8768808879592425 0.4807070692821538 0.0007885898634688177
-0.8488085159486822 0.5286996700268105 0.0008730214983887002
-0.8170863846673541 0.5765144389633141 0.0009703906672692018
-0.7823688384445713 0.6228143488444182 0.001134682508461682
-0.7466305784607449 0.6652367996880585 0.00166722768779573
-0.715884914300178 0.6982066735352898 0.004028710489940173
-0.8411006732417702 0.5408670380523645 -0.003536187311544033
-0.8653319704272793 0.501198812281524 -0.0005757812360484344
-0.8917364785797482 0.4525550182538023 9.068346254096176e-05
-0.9152680308271814 0.4028453384554222 0.0002550107244151834
-0.9347886113877512 0.3552043923245933 0.0003028086454790883
-0.950417772562323 0.310975818906071 0.0003124953926827633
-0.9626712472786602 0.2706731915378111 0.0003050339055457953
-0.9721424019043668 0.2343908427526951 0.0002885364608710357
-0.9793845474631085 0.2020045465227015 0.0002671603249592788
-0.9848728917837373 0.1732781802792911 0.0002434515060496036
-0.9889987359763495 0.1479238054849853 0.0002191073315180869
-0.992076337135897 0.1256363927733636 0.0001952073732729908
-0.9943539816747655 0.1061137569505277 0.0001723757064950551
-0.9960255628938375 0.0890677004509806 0.0001509913503965169
-0.9972411551553927 0.07422978663350761 0.0001313037753590613
-0.998116076973694 0.06135376120974875 0.0001134550990165906
-0.9987383797944875 0.05021592598450248 9.74833336575898e-05
-0.9991748932403652 0.0406143543414705 8.330384224375686e-05
-0.9994760339593464 0.03236746103759023 7.075927502228135e-05
-0.9996795878424186 0.0253124097130128 5.971375229645642e-05
-0.999813667949206 0.01930354558789086 5.009681055124102e-05
-0.9998990202325151 0.014210826433258 4.183466906230325e-05
-0.9999508118441707 0.009918300256188478 3.481682676235176e-05
-0.9999800114167842 0.006322652398526698 2.887101783206379e-05
-0.9999944488631045 0.00333191777343934 2.381021029202883e-05
-0.9999996262500866 0.0008643608110656643 1.949551151214488e-05
-0.9999993357751973 -0.001152475106134442 1.582067047965418e-05
-0.9999961282700502 -0.002782675479042762 1.273135664905961e-05
-0.999991665581823 -0.004082727373838527 1.020206367692645e-05
-0.9999869834254391 -0.005102245881117127 8.164465786702924e-06
-0.999982684488641 -0.005884783869725086 6.457367440679357e-06
-0.9999790789654914 -0.00646850889264631 4.902369656027002e-06
-0.999976286085807 -0.006886744842142005 3.393401920817068e-06
-0.9999743064599752 -0.007168431931895958 1.878486111814219e-06
-0.9999730723257789 -0.007338570924450235 3.588234324864118e-07
-0.999972481363692 -0.007418659860409625 -1.102634129490455e-06
-0.9999724191913273 -0.007427035118573427 -2.447709786685565e-06
-0.9999727724385429 -0.007379320297332076 -3.677399584700724e-06
-0.9999734356960173 -0.00728888736104856 -4.83120418731359e-06
-0.9999743159832006 -0.007167101145579947 -5.92442942803816e-06
-0.9999753339665511 -0.007023632256172033 -6.957999256323847e-06
-0.9999764239742456 -0.006866690112709148 -7.910456078032551e-06
-0.9999775339249357 -0.006703101544863125 -8.665026515323151e-06
-0.9999786239855581 -0.006538462268245323 -9.116809185719297e-06
-0.9999796651735618 -0.006377237202428505 -9.221440872902098e-06
-0.9999806377076034 -0.006222871507307101 -8.949760766695988e-06
-0.99998152936089 -0.006077899853189249 -8.392229984690655e-06
-0.9999823339419517 -0.005944051164945968 -7.730132855076765e-06
-0.9999830497980103 -0.005822376304674611 -7.129950033819618e-06
-0.9999836790348996 -0.0057132843367926 -6.775932947571202e-06
-0.9999842267302823 -0.005616604355608851 -6.793489014619237e-06
-0.9999847003938459 -0.005531629685614415 -7.158988132207063e-06
-0.9999851100414877 -0.005457071978472347 -7.793299191209776e-06
-0.9999854682675627 -0.005391027808149186 -8.536668584147443e-06
-0.9999857904774977 -0.005330924807765655 -9.153539047348606e-06
-0.9999860955794578 -0.005273381974512762 -9.502731960035749e-06
-0.9999864067840578 -0.005214034616086087 -9.493737484517764e-06
-0.9999867520392617 -0.005147393840964218 -9.089212120589981e-06
-0.9999871645452864 -0.005066623542034132 -8.400060311991977e-06
-0.9999876827970074 -0.004963284939666558 -7.541795851523365e-06
-0.9999883491124775 -0.00482717266419948 -6.58569238403173e-06
-0.9999892069910304 -0.004646059618929427 -5.609547551121905e-06
-0.9999902964206724 -0.004405342589271594 -4.600700966039112e-06
-0.999991645269683 -0.00408771070024982 -3.473174367194194e-06
-0.9999932557102538 -0.003672673311195763 -2.180852174501196e-06
-0.9999950832872788 -0.003135825367399279 -7.302726984994382e-07
-0.9999970033776738 -0.002448108444071646 8.476588478317579e-07
-0.9999987596497697 -0.00157502148089841 2.501327000787455e-06