# OOMMF: rectangular mesh v1.0
# Segment count: 1
# Begin: Segment
# Begin: Header
# Title: 
# Desc: time = 1.7897778209638708e-10
# Desc: stepsize = 3.9223133052103396e-13
# Desc: step = 380
# meshunit: m
# valueunit: (none)
# valuemultiplier: 800000.0000000002
# xmin: 0
# ymin: 0
# zmin: 0
# xmax: 4e-07
# ymax: 1e-07
# zmax: 4e-09
# ValueRangeMaxMag: 1
# ValueRangeMinMag: 0.9999999999999996
# meshtype: rectangular
# xbase: 2e-09
# ybase: 2e-09
# zbase: 1e-09
# xstepsize: 4e-09
# ystepsize: 4e-09
# zstepsize: 2e-09
# xnodes: 100
# ynodes: 25
# znodes: 2
# End: Header
# Begin: Data Text
-0.9441285051904925 0.3295719330393967 -0.001925263473233472
-0.9509636266838368 0.3093012014605194 0.0009733958099621268
-0.9592552142899841 0.2825373491107288 0.001442295031657747
-0.9672760597745118 0.2537223337178995 0.001414764940589044
-0.9743112616335655 0.225201897804715 0.001292547548131382
-0.9801645350925753 0.1981821142547441 0.001154875003962556
-0.9848810906790686 0.1732287369533027 0.00102074304876139
-0.9886020824438652 0.1505493948807268 0.0008957056992856207
-0.991493420263645 0.1301544734233785 0.0007814229210887644
-0.9937136593309264 0.1119495577477083 0.0006780702261813252
-0.9954015367252784 0.09578850788565532 0.0005851854349941958
-0.9966729004669059 0.08150384849742046 0.000502150370458206
-0.9976218261201661 0.06892393339144212 0.0004283159074012848
-0.9983233605160146 0.05788208803910391 0.00036294936967271
-0.9988366343816555 0.04822120506805026 0.0003052849678114622
-0.9992077964617578 0.03979591275794071 0.000254593401142646
-0.9994725873305965 0.03247311241419724 0.0002101066813078475
-0.9996584968290053 0.02613159831031905 0.0001711353879947864
-0.9997865191545158 0.02066149319644472 0.0001371706616864311
-0.9998725694934955 0.01596349488853596 0.0001077284475205531
-0.9999286178181843 0.01194790751906621 8.23051073645734e-05
-0.9999635831628988 0.008533972469878923 6.051362741777168e-05
-0.9999840427636268 0.005649110930800151 4.199766681258374e-05
-0.9999947897072385 0.003227981268720205 2.6368627253503e-05
-0.9999992656152821 0.001211854764908473 1.330130649326388e-05
-0.9999998979245657 -0.0004518240629429368 2.423613623104787e-06
-0.9999983616931225 -0.001810129082625694 -6.616246020402048e-06
-0.9999957799623873 -0.002905143778664788 -1.403714807519728e-05
-0.9999928772131244 -0.003774271026915131 -2.003077994385698e-05
-0.9999900950370386 -0.004450754147527252 -2.480589436526834e-05
-0.9999876791230131 -0.004963949301036757 -2.845181835972975e-05
-0.9999857434709573 -0.005339652618504506 -3.106042641939185e-05
-0.9999843163286949 -0.005600537662793417 -3.277987592208017e-05
-0.9999833735793651 -0.005766405341152202 -3.367897051948186e-05
-0.9999828620249714 -0.005854443255206667 -3.391929172246019e-05
-0.9999827143284391 -0.005879618285684614 -3.366217375090872e-05
-0.9999828596254393 -0.00585485822156917 -3.302323597268976e-05
-0.9999832301306035 -0.005791236663115 -3.217881532911171e-05
-0.9999837639998418 -0.005698312061543942 -3.124672362852971e-05
-0.9999844081365267 -0.005584135136761059 -3.030865054115455e-05
-0.9999851182918029 -0.005455486029004937 -2.944682492447335e-05
-0.9999858586418977 -0.00531805350747542 -2.869002617964982e-05
-0.9999866018920764 -0.005176412912929609 -2.803019859092988e-05
-0.9999873273956451 -0.005034311606439224 -2.747295634428478e-05
-0.999988020673557 -0.004894668672662928 -2.698084616988722e-05
-0.9999886723594034 -0.004759669087257351 -2.651522683894828e-05
-0.999989276765937 -0.004630947329578866 -2.607620547957873e-05
-0.9999898317437211 -0.004509518052360955 -2.561444069892284e-05
-0.9999903374400984 -0.004395952091752356 -2.51325404005006e-05
-0.9999907960046672 -0.004290372833675841 -2.463532997487592e-05
-0.9999912113853919 -0.004192442204401441 -2.409022377059957e-05
-0.9999915886310263 -0.004101476987546309 -2.35311895083288e-05
-0.9999919343572979 -0.004016303559510654 -2.293616024163775e-05
-0.9999922563370572 -0.00393532319485287 -2.229961393441629e-05
-0.9999925637182617 -0.003856428329194977 -2.164994152378618e-05
-0.9999928674613443 -0.003776848863029223 -2.095479847691752e-05
-0.9999931799628762 -0.003693185341169119 -2.024277734641375e-05
-0.9999935157709098 -0.003601115775657378 -1.952703520661298e-05
-0.999993891142114 -0.003495329070211029 -1.879213340679537e-05
-0.999994323529962 -0.003369359189406173 -1.806948369981191e-05
-0.9999948309917502 -0.003215227704359018 -1.733752110924366e-05
-0.9999954294174647 -0.003023387244521641 -1.65453861563938e-05
-0.9999961292874731 -0.002782294936985177 -1.56510268043623e-05
-0.9999969294243477 -0.002478090174931178 -1.452448352989178e-05
-0.9999978067915861 -0.002094335968356228 -1.299495692258615e-05
-0.9999987016655614 -0.00161138089232551 -1.09000372602596e-05
-0.9999994940087755 -0.001005941698975161 -7.968087978450297e-06
-0.9999999686195619 -0.0002504901008231057 -3.947683951971219e-06
-0.9999997635947599 0.0006876107069807158 1.392635758544164e-06
-0.9999982945402719 0.001846847668898901 8.380624352230634e-06
-0.9999946451104078 0.003272530091978548 1.724256988026771e-05
-0.9999874095425346 0.005017963665451156 2.823230990976438e-05
-0.9999744696221502 0.007145513521312905 4.171829302541189e-05
-0.9999526812514673 0.009727892336676277 5.804039095349865e-05
-0.9999174376028318 0.01284958944613691 7.764568318542508e-05
-0.9998620732892084 0.0166079550401832 0.0001011295647946872
-0.9997770546314224 0.02111455299556506 0.0001291677772492456
-0.9996488945596941 0.02649643688919286 0.000162596921039647
-0.9994587339191778 0.03289678174411595 0.0002023451362722037
-0.9991805107632983 0.04047523655423772 0.0002492722852103949
-0.9987786505346298 0.04940763685687422 0.0003043952079566929
-0.9982052411998308 0.05988455863601445 0.0003688877297453369
-0.9973966942681468 0.07210851033417774 0.0004438472242543629
-0.9962699768891691 0.08628934939019661 0.0005304065147590113
-0.9947186309295426 0.1026374619268139 0.0006298340084415626
-0.9926088897517201 0.121355013766713 0.0007433838427646517
-0.9897763769161941 0.1426252534099685 0.0008722318465352546
-0.9860240275531225 0.166600065915858 0.001017410807029348
-0.9811218425241824 0.1933870184945545 0.001179491305352112
-0.9748089329326071 0.2230374376590463 0.001358557057544702
-0.9667980629293397 0.2555368651537928 0.00155436914803576
-0.9567824355549831 0.290799331540456 0.001766292472454868
-0.9444442175643206 0.3286657069932615 0.001993227517718949
-0.9294649400629352 0.3689036939909829 0.002233775640270236
-0.9115400947714933 0.4112036888709303 0.002486339259986696
-0.8904062890992135 0.4551583019455469 0.002749636814875855
-0.865905324148284 0.5001987730390823 0.003026063755361883
-0.838156592621274 0.5454194250391133 0.003343207366928582
-0.8080926796081034 0.5890424730303483 0.00389693855301333
-0.7797371884963086 0.6260801268742652 0.005795826858641367
-0.9253670931629255 0.3790578635490382 -0.003298328794392705
-0.9366461797528607 0.3502769266880304 -9.265181845989336e-05
-0.9485631790490744 0.3165874392839242 0.0005372522317017298
-0.9592552567339457 0.2825402053485883 0.0006203143307680495
-0.9682834063604502 0.2498537426137871 0.0005935224393022248
-0.9756439898606292 0.2193593184069552 0.0005426572288172094
-0.9815060840842769 0.1914303248283254 0.0004874850456384954
-0.9860969201265595 0.1661706234041848 0.0004336293095284105
-0.9896463129048575 0.1435271008460015 0.0003829837623125036
-0.9923618663074375 0.1233605013655176 0.0003361572067079633
-0.9944204025404504 0.1054892270445909 0.0002932385086708196
-0.9959673739161711 0.08971580390789326 0.0002542118917213353
-0.9971197959237159 0.0758423668107374 0.0002190287472953304
-0.9979704138277339 0.06367902293488592 0.0001875168238870324
-0.9985919497427934 0.05304802063227617 0.0001594235974031896
-0.9990409400104001 0.04378563799829475 0.0001344924447936177
-0.9993610266964476 0.03574249138598571 0.0001123821381308369
-0.9995856812695816 0.0287829323199102 9.277873353998992e-05
-0.9997404017936347 0.02278427790443522 7.551075955850892e-05
-0.9998444737227514 0.01763589287042365 6.040477316592022e-05
-0.9999123718074184 0.01323806916891669 4.723496211250437e-05
-0.9999548619615931 0.009501197472018559 3.586040078155322e-05
-0.9999798707329951 0.006344875486013644 2.61512791878778e-05
-0.9999931664226237 0.003696861752630487 1.792307927153358e-05
-0.9999988863885804 0.001492347158313243 1.102532949196732e-05
-0.9999999466568731 -0.0003265865775610149 5.240059562771021e-06
-0.9999983588011103 -0.001811738104202948 3.563663458813282e-07
-0.9999954719126635 -0.003009342177454035 -3.718571846418029e-06
-0.9999921574008358 -0.003960440240439319 -7.065663936236626e-06
-0.9999889480333407 -0.004701458840677929 -9.794969625022893e-06
-0.9999861421825976 -0.00526453236564929 -1.190529987907655e-05
-0.9999838806790393 -0.005677869530991119 -1.340437343551589e-05
-0.9999822017949529 -0.00596622886816981 -1.436699759260826e-05
-0.9999810810104284 -0.006151211437005555 -1.48010935284612e-05
-0.9999804587230067 -0.006251556017759099 -1.481490735721125e-05
-0.9999802581285328 -0.006283561267380045 -1.452554675793925e-05
-0.9999803977826655 -0.006261298116314802 -1.401144093188127e-05
-0.9999807994587877 -0.006196816426883803 -1.341397295338117e-05
-0.9999813916746594 -0.006100503260256151 -1.282118840416577e-05
-0.9999821129139935 -0.005981112023881408 -1.228911698305407e-05
-0.9999829118563792 -0.005846011819810479 -1.187597577640442e-05
-0.9999837469304379 -0.005701380587602155 -1.159125030212254e-05
-0.9999845863784942 -0.005552195530887218 -1.141132701115757e-05
-0.9999854061848545 -0.005402526164892723 -1.132910341456212e-05
-0.9999861894590331 -0.005255545976221652 -1.130018356688493e-05
-0.99998692521932 -0.005113635023505207 -1.128080004582237e-05
-0.9999876067705399 -0.00497857191954752 -1.126808993863402e-05
-0.9999882314695823 -0.004851473651534267 -1.121360819054791e-05
-0.9999887993417717 -0.004732976586252106 -1.11191431355422e-05
-0.9999893127168562 -0.004623238181189646 -1.099040188188491e-05
-0.9999897759877769 -0.004521924737690465 -1.079730988552605e-05
-0.999990194852119 -0.004428327878242268 -1.057466722208432e-05
-0.9999905768042622 -0.004341220623009933 -1.030441239849471e-05
-0.9999909307188964 -0.004258917733587412 -9.984657550127632e-06
-0.9999912671036955 -0.004179189306732714 -9.648003879728671e-06
-0.999991598604966 -0.004099101551539848 -9.271147000535735e-06
-0.9999919396591648 -0.004015038933753667 -8.89163443989445e-06
-0.9999923072969966 -0.003922406655943842 -8.535445149371849e-06
-0.999992720733427 -0.003815548823307324 -8.205802040888428e-06
-0.9999932008647776 -0.003687568431111106 -7.95499123178567e-06
-0.9999937696407338 -0.003529960204154307 -7.789180508763643e-06
-0.9999944470774272 -0.003332529841133857 -7.692081165433387e-06
-0.9999952476617783 -0.003082952349327729 -7.65966373278695e-06
-0.9999961733962072 -0.002766430019321496 -7.608572341059228e-06
-0.9999972024073187 -0.002365401114655046 -7.423094624596903e-06
-0.9999982722607123 -0.001858877770756604 -7.001659139845154e-06
-0.9999992533493376 -0.001221991393777106 -6.148238711871598e-06
-0.9999999095355423 -0.0004253313955970161 -4.702188448809989e-06
-0.9999998398399355 0.000565962601573321 -2.537014647302863e-06
-0.999998392571205 0.001793001592044915 5.444458739301379e-07
-0.9999945411401752 0.00330418954473895 4.615445181916907e-06
-0.999986705315015 0.005156461777576606 9.754880206600756e-06
-0.9999724978288216 0.007416422722904385 1.612397540069592e-05
-0.9999483681162593 0.01016171904191895 2.382736177099931e-05
-0.9999091058638663 0.01348254124479303 3.304701781135176e-05
-0.9998471634149702 0.01748278779088155 4.406922431721559e-05
-0.9997517350022147 0.02228149650290586 5.721583605201174e-05
-0.9996075234311633 0.02801417108162765 7.292753466761259e-05
-0.9993931271804427 0.0348334456861078 9.16849369706243e-05
-0.9990789600470493 0.04290942354944523 0.0001138506063389096
-0.9986246296167925 0.05242928141694798 0.0001399029171336836
-0.9979757361493976 0.06359560525255332 0.0001704395170705771
-0.9970600985888654 0.07662321700067118 0.0002059573482506831
-0.9957835178092437 0.09173398857332915 0.0002469815286563113
-0.9940253425024823 0.1091491269950801 0.0002941751766614493
-0.9916342255270415 0.1290792063580992 0.0003482087700133691
-0.9884246749325871 0.1517118785876293 0.0004097314017802886
-0.9841751990270972 0.1771974826653193 0.00047932978943709
-0.9786288243483636 0.2056339311827561 0.0005572260446870241
-0.9714965939717782 0.2370526399308734 0.000643275241880762
-0.9624643303074769 0.2714072023746306 0.0007371464953809028
-0.9512023250166288 0.308566741898388 0.0008382584163829344
-0.9373771799198785 0.3483146970094205 0.000945733942961685
-0.9206655153950245 0.3903509806207692 0.001058626854623455
-0.9007714472127386 0.4342918563254332 0.001176186922763404
-0.8774563907761488 0.4796546623490779 0.001298912193295206
-0.8506090408209754 0.5257967317847655 0.001434056511789193
-0.8204466221595916 0.5717208156192983 0.001627628495702133
-0.7881994741299662 0.6154160420550444 0.002164292620727491
-0.7590006623567536 0.651074061964497 0.004534355418304052
-0.8999294370247154 0.4360212697567598 -0.003529971116234034
-0.915845375766187 0.4015309735292563 -0.0003535312418551939
-0.9325377540865174 0.3610723432885009 0.0003164102150159557
-0.9471382891872162 0.320825293296109 0.0004385623996738146
-0.9591871201076849 0.2827717676795815 0.0004427447228670528
-0.9688478498290465 0.2476563553091063 0.0004166012991464534
-0.9764530382285271 0.2157297347817426 0.0003816612066562215
-0.9823603758292548 0.1869972545575304 0.0003446571499719916
-0.9869002432722116 0.1613313820821657 0.0003081958920445628
-0.9903575802429189 0.1385344308042923 0.0002733809079736205
-0.992968761360119 0.1183764378563994 0.0002406727662682882
-0.9949250757836332 0.100618334941532 0.0002103580866523242
-0.9963787381922929 0.08502574152255273 0.0001826386424871272
-0.9974494375452481 0.07137642973903868 0.0001575384900140963
-0.998230444722771 0.05946394718574258 0.0001349580296600681
-0.9987939043468161 0.04909911880653385 0.0001147696153427392
-0.9991952641494312 0.04011003294331294 9.674003413650444e-05
-0.9994768856690152 0.03234112723862276 8.063684901404237e-05
-0.9996709278281026 0.02565212763102039 6.635737993514764e-05
-0.9998016376123108 0.01991689066268401 5.379657692683873e-05
-0.9998871614950186 0.01502206532495818 4.278792927665843e-05
-0.9999409622990914 0.01086603936415433 3.324008358967248e-05
-0.9999729303033081 0.007357855116324371 2.507392468381451e-05
-0.999990249224136 0.00441600807471577 1.814755521558704e-05
-0.9999980642632698 0.001967566395169265 1.233668940072437e-05
-0.9999999985935624 -5.251128239104056e-05 7.445803016645849e-06
-0.9999985511475166 -0.001702260870664844 3.285700272934956e-06
-0.9999953993176709 -0.003033371629594058 -2.201158801545603e-07
-0.9999916291811121 -0.00409164488601273 -3.135481091623816e-06
-0.9999879082993309 -0.004917644184731039 -5.549878461042699e-06
-0.9999846147383434 -0.005547092140258573 -7.442729421152288e-06
-0.9999819319378087 -0.006011299398620531 -8.801541788484892e-06
-0.9999799165743832 -0.006337693122211585 -9.683905086771948e-06
-0.9999785473672225 -0.006550168211663157 -1.008654598347667e-05
-0.9999777590536806 -0.006669429949580937 -1.010577975253043e-05
-0.9999774644561744 -0.006713455349005133 -9.852772761594687e-06
-0.9999775697689479 -0.006697751155090175 -9.404963941952038e-06
-0.9999779841825908 -0.006635591226376818 -8.899364627037066e-06
-0.9999786244068614 -0.006538398768212575 -8.420723258080314e-06
-0.9999794184699203 -0.006415806436428834 -8.020573221828422e-06
-0.9999803061983896 -0.006275918685125483 -7.748031636097761e-06
-0.9999812387832501 -0.006125522318646743 -7.605254484674134e-06
-0.9999821787879426 -0.005970096257087022 -7.563041901518436e-06
-0.9999830978837716 -0.005814111185534424 -7.609004585851844e-06
-0.9999839760462035 -0.005661059224350311 -7.699581763711873e-06
-0.9999848001396856 -0.005513567708342487 -7.792190036090826e-06
-0.9999855620807611 -0.005373599151788205 -7.885435351355494e-06
-0.9999862584643082 -0.005242405894595001 -7.936614973073111e-06
-0.9999868890192479 -0.005120715421823594 -7.948251851399488e-06
-0.9999874561517702 -0.005008739987586494 -7.927680742617838e-06
-0.9999879646501597 -0.004906168897831389 -7.847049584113789e-06
-0.9999884208672039 -0.004812283411560441 -7.738367554708826e-06
-0.9999888332355293 -0.004725817042055837 -7.584809695302225e-06
-0.9999892118640258 -0.004645008186733417 -7.383059228261039e-06
-0.9999895688407708 -0.004567511175757473 -7.162964650586497e-06
-0.9999899188317617 -0.004490232419737173 -6.903834360780153e-06
-0.9999902788060036 -0.004409336612754041 -6.642757446231721e-06
-0.9999906689616108 -0.004319947758652753 -6.40875535364291e-06
-0.9999911124094965 -0.004216048317426726 -6.213112839933677e-06
-0.9999916347394494 -0.004090282843854762 -6.113936247084364e-06
-0.999992263405826 -0.003933584999474876 -6.127360321604081e-06
-0.999993024597928 -0.003735065787364592 -6.249105476503868e-06
-0.9999939393333346 -0.003481559215469106 -6.482869683090643e-06
-0.999995015815672 -0.003157261182051256 -6.755867545453424e-06
-0.9999962368511977 -0.002743398429336244 -6.96425536285196e-06
-0.9999975412163329 -0.002217546412453387 -7.014027246656164e-06
-0.9999987938653323 -0.001553133172768283 -6.725149793669175e-06
-0.9999997417002835 -0.0007187237712956803 -5.958744227208752e-06
-0.9999999478475008 0.0003229299263235495 -4.610617990595873e-06
-0.9999986946643306 0.001615754707952173 -2.521528123927599e-06
-0.999994843200779 0.003211475009078193 3.38978019806137e-07
-0.9999866307203178 0.005170915255595091 4.005755954316055e-06
-0.9999713832922537 0.007565217969050681 8.582395148532527e-06
-0.9999451113636058 0.01047731171455074 1.411602934748847e-05
-0.999901946157274 0.01400348674511139 2.073342347472188e-05
-0.9998333695381816 0.01825465247556313 2.865173367402438e-05
-0.9997271671535792 0.02335786382370458 3.81139418930331e-05
-0.999566026284239 0.02945770951853544 4.947987173338422e-05
-0.999325700154384 0.03671703998271807 6.313364610407562e-05
-0.9989726388680696 0.04531733112026678 7.932906835884068e-05
-0.9984610043510703 0.05545821040424471 9.843276782878042e-05
-0.9977290252309344 0.06735560547254386 0.0001209262438015317
-0.9966947009152519 0.08123823914903928 0.0001471985718913532
-0.9952509906915178 0.09734184072462974 0.0001776848122114868
-0.9932608078832247 0.1159004839049803 0.0002129642101211889
-0.9905522970570495 0.1371352706943237 0.0002536268849150688
-0.9869151481795186 0.1612401939228455 0.000300262421060268
-0.9820989551409838 0.1883653827267495 0.0003534136282384364
-0.9758146344532953 0.2185992415434592 0.0004132594892673032
-0.9677397477875667 0.2519514844700168 0.0004796096447757102
-0.9575281787721702 0.2883391788606576 0.0005520789907066296
-0.9448238142055809 0.3275783313915794 0.0006300100999892095
-0.929277250737096 0.3693823001915492 0.0007124378597147165
-0.9105650194151029 0.4133651025894971 0.0007983600360775996
-0.8884135084337489 0.4590431908626367 0.0008871048899463032
-0.8626384131176383 0.5058201344602374 0.0009796879654460557
-0.8332355757494438 0.5529170799536953 0.001085357531439813
-0.8006351420352775 0.5991508902579711 0.001256996909771355
-0.7664962674501711 0.6422462438075202 0.001798415993719775
-0.7365794198073753 0.6763379740601433 0.004207512382711361
-0.8709060853529796 0.4914367524838506 -0.00353677865784463
-0.8912486926137614 0.4535146685756013 -0.0004618452371299362
-0.9129650886736399 0.4080376236968407 0.0002109762263857928
-0.9320368708126086 0.3623632774609122 0.0003557999806703057
-0.9477265124472166 0.319083550492441 0.0003813263343910118
-0.9602397750858794 0.2791763530529494 0.0003718051564837474
-0.9700382400783539 0.2429520340523213 0.0003491926817261595
-0.9776135808881229 0.2104081350176266 0.000321218780938357
-0.9834120346706582 0.1813854602011885 0.000291363207293495
-0.9878126895396802 0.1556471074593624 0.0002613884398137276
-0.991126414711167 0.1329224440358663 0.0002322354822990154
-0.9936026103921635 0.1129327710826179 0.0002045421212887654
-0.9954384009149378 0.09540627874953926 0.0001787710159935366
-0.996787938137389 0.0800860931529595 0.000155136416687679
-0.9977707828653832 0.06673415162260851 0.0001336690343927123
-0.9984790270315903 0.05513274441440262 0.0001143301555592328
-0.9989831762889646 0.04508441074179605 9.695192569704109e-05
-0.9993369018751493 0.03641084911607108 8.134632286404423e-05
-0.999580811445022 0.02895162935916975 6.744153332657873e-05
-0.9997454259505389 0.02256280674972425 5.515930838042732e-05
-0.9998535204690699 0.01711536263719327 4.435543252959384e-05
-0.9999219472974619 0.01249392215108712 3.495903135103615e-05
-0.9999630579928267 0.00859545957564985 2.691314754198496e-05
-0.9999858064013365 0.00532790694214217 2.008690853188017e-05
-0.9999965962024918 0.002609095126736395 1.435444712537756e-05
-0.9999999330065341 0.0003659183629662667 9.522535197936985e-06
-0.9999989244043078 -0.001466683688022032 5.402447467760773e-06
-0.9999956589998489 -0.00294651960947943 1.910061380978761e-06
-0.9999914933415173 -0.004124711330985886 -1.018702818438328e-06
-0.9999872667359681 -0.005046419911612871 -3.4645265863624e-06
-0.9999834609285848 -0.005751333767611499 -5.402081678977634e-06
-0.999980317128577 -0.006274177955829552 -6.812369732039603e-06
-0.9999779196967894 -0.006645303520150404 -7.746346450513255e-06
-0.9999762560117647 -0.006891106257290965 -8.200234500643592e-06
-0.9999752580819006 -0.007034426465515031 -8.26662401650179e-06
-0.9999748297476148 -0.007095055059328358 -8.058130119933555e-06
-0.9999748652874775 -0.007090044755724823 -7.658508830176986e-06
-0.9999752612021208 -0.007033984064347651 -7.206410396198637e-06
-0.9999759220179605 -0.006939404746445076 -6.789324561737645e-06
-0.9999767647893298 -0.006816879031887102 -6.459846230900365e-06
-0.999977719943384 -0.006675296069521212 -6.262181558031624e-06
-0.9999787309189898 -0.006522091020330662 -6.194248477909992e-06
-0.999979754113274 -0.006363279408340927 -6.223088886650737e-06
-0.999980756470826 -0.006203760791461396 -6.330596040766412e-06
-0.9999817144746824 -0.006047369210514114 -6.473485292028339e-06
-0.9999826125200757 -0.005897000409177589 -6.610469067936119e-06
-0.9999834408789099 -0.005754817331670169 -6.741970741964344e-06
-0.999984195148418 -0.005622224353617247 -6.832849920626083e-06
-0.9999848745546067 -0.005500055868552406 -6.888389480810426e-06
-0.9999854813951934 -0.005388594524200616 -6.919322504513241e-06
-0.9999860206699528 -0.005287571942855369 -6.90081638251911e-06
-0.9999864992279319 -0.005196278937272023 -6.860806423476991e-06
-0.9999869262957753 -0.005113432461531741 -6.781470421473846e-06
-0.9999873131003965 -0.005037220856730813 -6.655042300430767e-06
-0.9999876732418582 -0.004965211174615364 -6.505816017726218e-06
-0.9999880233945971 -0.004894183026589976 -6.314120260818446e-06
-0.9999883831512099 -0.004820116723244196 -6.115788247026989e-06
-0.9999887760992018 -0.004737894078418947 -5.94319205457734e-06
-0.9999892296485182 -0.00464118014528146 -5.815620174103926e-06
-0.9999897747357199 -0.004522210788198459 -5.795760656024639e-06
-0.9999904452916679 -0.004371417444938993 -5.90704240823082e-06
-0.9999912750864233 -0.004177285385064148 -6.151466252950397e-06
-0.9999922936422118 -0.003925890155684239 -6.53249059012422e-06
-0.9999935180793784 -0.00360052087041615 -6.977749572737078e-06
-0.9999949395881133 -0.003181311623499963 -7.383730654626827e-06
-0.9999965031546098 -0.002644545328914101 -7.65214912433123e-06
-0.9999980750138867 -0.001962118919471774 -7.606996617566838e-06
-0.9999993941167084 -0.001100779514548341 -7.118713334681496e-06
-0.999999999758013 -2.113941357772477e-05 -6.090907575388606e-06
-0.9999991244980359 0.001323247492940135 -4.385621619136937e-06
-0.9999955386915066 0.002987070991863533 -1.993249658362838e-06
-0.9999873262174531 0.005034620467470283 1.103226378686571e-06
-0.9999715656886998 0.007541073484313868 4.979364989948497e-06
-0.9999438814400142 0.01059404914801417 9.660627179180226e-06
-0.9998978175984828 0.01429524847426061 1.525942730081884e-05
-0.999823981634357 0.01876180338170436 2.197013833779253e-05
-0.9997088794562209 0.02412789745887614 3.00100075749949e-05
-0.9995333544806575 0.03054622240325306 3.971819355042181e-05
-0.9992705405782798 0.03818879528481307 5.144984565074392e-05
-0.9988832163203256 0.0472473901182166 6.542612616834969e-05
-0.9983204671516405 0.05793304881371801 8.198339678617189e-05
-0.9975136021081328 0.07047413207804931 0.0001015731421842329
-0.9963713313428731 0.08511259930225715 0.0001245714401740096
-0.9947743592281461 0.1020977536106887 0.000151426159880964
-0.9925697599528364 0.1216767777090357 0.0001827389230085681
-0.9895656995553933 0.1440821926803705 0.0002191252182467412
-0.9855274129645902 0.1695159286349033 0.0002612170896608415
-0.9801756735915986 0.1981301416813415 0.0003096071492313377
-0.9731890581324221 0.2300063569992265 0.000364515120190859
-0.9642111719043335 0.2651351253422849 0.0004257752954718084
-0.9528635682165372 0.303398710152328 0.0004929944744322439
-0.9387641332760899 0.3445599836617745 0.0005654497228982469
-0.921549892668068 0.3882594275640872 0.0006420522402562096
-0.9009036399900615 0.4340185602975417 0.0007216438915341022
-0.8765869068788872 0.4812429211987904 0.0008034205371356609
-0.848491755153569 0.5292078534312721 0.0008884273074354738
-0.8167508026953888 0.5769897341098256 0.0009864219737642469
-0.782018195973444 0.623254534949841 0.001151447305466353
-0.7462678875718479 0.6656435995680932 0.001684735315373902
-0.7155126269237528 0.6985880831535148 0.004046083114320581
-0.8403249115148074 0.5420717500029893 -0.003501561983922585
-0.8646483210061097 0.5023773292892827 -0.0005477202594988611
-0.8911626956892639 0.4536838509889242 0.0001147331840541737
-0.9148002985928398 0.4039063474206256 0.000276057565176517
-0.9344147746298903 0.35618664444334 0.0003213620456964401
-0.9501231436026446 0.3118748207272835 0.0003289178509559151
-0.9624414454212271 0.271489156295007 0.0003196087046141092
-0.9719646434004119 0.2351268616456806 0.000301516438133509
-0.979248029836682 0.2026652864502887 0.0002787992082973878
-0.9847687410775626 0.1738690948389974 0.000253882610961109
-0.9889198126757237 0.1484505035223624 0.000228257240977146
-0.9920169760737053 0.1261042345847762 0.0002029812029322963
-0.9943097045260789 0.1065278344058161 0.0001788353105710728
-0.995992840645145 0.08943286286997126 0.0001562769830825295
-0.9972172246326378 0.07455057701590882 0.0001355085752456093
-0.9980987835992386 0.06163444314582225 0.0001166011314021738
-0.9987260522598472 0.05046050578725857 9.946433678792897e-05
-0.9991662482135173 0.04082647891106089 8.396813774593431e-05
-0.999470091458845 0.03255044343890454 7.007979915602191e-05
-0.9996756020059454 0.02546934273296757 5.774773176152317e-05
-0.9998110774431331 0.01943726387900519 4.684974967563072e-05
-0.9998974060415174 0.01432396583936585 3.733734580727394e-05
-0.9999498643452736 0.0100133882689444 2.91760819364419e-05
-0.999979506327481 0.00640206452905524 2.224438599295362e-05
-0.9999942270704222 0.003397875284212619 1.641285463597247e-05
-0.9999995776064066 0.000919051142729375 1.148933899633474e-05
-0.9999993872619589 -0.001106988096221766 7.284289625182853e-06
-0.9999962336385236 -0.002744575566892526 3.704656754488727e-06
-0.9999917967634832 -0.004050482103671206 6.839979476822694e-07
-0.9999871234762155 -0.005074729384616984 -1.853714606694797e-06
-0.9999828231107789 -0.005861183184088212 -3.883127743701542e-06
-0.9999792104477663 -0.00644815038046098 -5.378925750366038e-06
-0.9999764078980458 -0.00686903243328093 -6.383657367874698e-06
-0.9999744182230789 -0.007152821251738928 -6.896021503889787e-06
-0.9999731749760018 -0.0073245668331762 -7.008590733115816e-06
-0.9999725756968998 -0.007405930553120525 -6.837381910370779e-06
-0.9999725043931714 -0.007415552288059694 -6.473920017164605e-06
-0.9999728458366796 -0.00736936581938565 -6.059028321693613e-06
-0.9999734929210187 -0.007281031728296284 -5.684047726153353e-06
-0.9999743519850964 -0.007162076708414975 -5.404498831187616e-06
-0.9999753441288568 -0.007022186745316327 -5.261896424648588e-06
-0.9999764050059112 -0.006869454408868464 -5.251499200576327e-06
-0.9999774847193045 -0.006710441562846406 -5.337051601416306e-06
-0.9999785453285858 -0.006550484893769146 -5.493753306379788e-06
-0.9999795596414945 -0.006393767823162677 -5.676754066313406e-06
-0.9999805093771937 -0.006243463106075561 -5.845569964384817e-06
-0.9999813829619966 -0.006101941772034302 -6.001942008679629e-06
-0.9999821747743712 -0.005970770141673022 -6.118297794465276e-06
-0.9999828833129037 -0.005850901018239178 -6.203686400735382e-06
-0.9999835105413594 -0.005742700239275078 -6.27222892045787e-06
-0.9999840614245382 -0.005645959366214069 -6.302355468809703e-06
-0.9999845430699924 -0.005559998307627097 -6.318012978539483e-06
-0.9999849652580184 -0.005483540666332438 -6.299205586379272e-06
-0.9999853400929345 -0.005414753952501519 -6.233099526970509e-06
-0.9999856824755228 -0.00535114999631267 -6.138377484642856e-06
-0.9999860109022506 -0.005289419992142632 -5.995837853843621e-06
-0.9999863474612856 -0.005225404952888611 -5.840833301238854e-06
-0.9999867190921474 -0.005153795369993791 -5.710212113119704e-06
-0.9999871575871294 -0.005068000503551049 -5.631087903144276e-06
-0.9999876995052452 -0.004959919962823483 -5.671813634576363e-06
-0.9999883857959811 -0.004819568318338056 -5.862773080432396e-06
-0.9999892587306415 -0.004634909360458474 -6.209836909183024e-06
-0.9999903577987321 -0.004391385257073386 -6.714685086476635e-06
-0.9999917112682104 -0.004071528160673759 -7.301544503125782e-06
-0.999993322035907 -0.003654561774684589 -7.862940375142702e-06
-0.9999951461744803 -0.003115695538289368 -8.294093648748697e-06
-0.9999970582957266 -0.002425557462281549 -8.419609766708855e-06
-0.9999987996555478 -0.001549393940908394 -8.11658141439589e-06