# OOMMF: rectangular mesh v1.0
# Segment count: 1
# Begin: Segment
# Begin: Header
# Title: 
# Desc: time = 1.0943067426310262e-10
# Desc: stepsize = 4.007785006266087e-13
# Desc: step = 220
# meshunit: m
# valueunit: (none)
# valuemultiplier: 800000.0000000002
# xmin: 0
# ymin: 0
# zmin: 0
# xmax: 4e-07
# ymax: 1e-07
# zmax: 4e-09
# ValueRangeMaxMag: 1
# ValueRangeMinMag: 0.9999999999999996
# meshtype: rectangular
# xbase: 2e-09
# ybase: 2e-09
# zbase: 1e-09
# xstepsize: 4e-09
# ystepsize: 4e-09
# zstepsize: 2e-09
# xnodes: 100
# ynodes: 25
# znodes: 2
# End: Header
# Begin: Data Text
-0.9447222964995061 0.3278644374618807 -0.002166366659442121
-0.9514634369259576 0.3077608549609288 0.0007644257728310126
-0.9596557611310084 0.2811747148737031 0.001264849301801464
-0.9675898656387543 0.2525237679106839 0.001264339103256174
-0.9745541775451865 0.2241490551923295 0.001164510889015895
-0.980351302078013 0.1972567665703117 0.001045254117271333
-0.9850240985753416 0.1724142311903235 0.0009263416674968873
-0.9887112577277911 0.1498311923986674 0.0008140188710204723
-0.9915765316533214 0.1295201801873141 0.0007104918121568841
-0.9937767283468053 0.1113886629618896 0.0006164088597954072
-0.9954492089391477 0.09529212823915234 0.0005317124011546918
-0.9967087555837533 0.0810644719253511 0.0004559979707419835
-0.9976486311951951 0.06853508292201292 0.0003886942582537757
-0.9983432558649672 0.05753811887588611 0.0003291582601560059
-0.9988512722398607 0.04791721365956424 0.0002767307620614896
-0.999218454272413 0.03952755227592778 0.0002307650813632889
-0.9994802524274987 0.0322364492975319 0.0001906414204075508
-0.9996639270494423 0.02592313040196739 0.0001557762798375927
-0.999790293734239 0.02047810468435247 0.0001256317645654292
-0.9998751296456795 0.01580237881486702 9.96986789562217e-05
-0.9999302967808802 0.01180659029411933 7.749404547145902e-05
-0.9999646322131893 0.008410166066102674 5.856177069120463e-05
-0.9999846499464538 0.00554058336285821 4.251432076732922e-05
-0.9999950927162129 0.003132683144674725 2.897944054437309e-05
-0.999999363656192 0.001127997721880328 1.755989696585295e-05
-0.9999998616690421 -0.0005259272544299676 7.900589020760903e-06
-0.9999982403718085 -0.001875967278173016 -2.394419762455988e-07
-0.9999956078710751 -0.002963813247315237 -7.042272188760898e-06
-0.9999926787497302 -0.003826523718630459 -1.277377109391753e-05
-0.9999898880048725 -0.004497062984544942 -1.767809419608809e-05
-0.999987476481622 -0.005004638126152887 -2.184361022110973e-05
-0.9999855546699651 -0.005374924454556927 -2.526874732973694e-05
-0.9999841486545169 -0.005630422570502186 -2.795313977455006e-05
-0.9999832324157581 -0.00579085411372465 -2.993267107954663e-05
-0.9999827503517865 -0.005873501447324034 -3.129895681095174e-05
-0.9999826327165354 -0.005893490824462441 -3.211243307193536e-05
-0.9999828063597909 -0.005863952425416388 -3.235349887951634e-05
-0.9999832021087959 -0.005796074029646229 -3.203250721817052e-05
-0.9999837582410559 -0.005699322624294088 -3.123647918974783e-05
-0.9999844217418988 -0.005581698980021624 -3.016647353774133e-05
-0.9999851489038939 -0.005449873895644559 -2.908914382644469e-05
-0.9999859045606463 -0.005309414704274645 -2.820502188869876e-05
-0.9999866614415233 -0.005164898472731922 -2.761887684424732e-05
-0.9999873995002073 -0.005019969718897644 -2.729164708710077e-05
-0.9999881046596917 -0.004877479714904176 -2.703234656494523e-05
-0.99998876775944 -0.004739582734405772 -2.665445553673529e-05
-0.999989383188126 -0.004607909469380229 -2.610273516780246e-05
-0.999989947686046 -0.004483735272497812 -2.539418418327765e-05
-0.9999904599650676 -0.004367994236334674 -2.460088437800047e-05
-0.9999909209257464 -0.004261161348365194 -2.387551898566755e-05
-0.9999913337782925 -0.00416315081103525 -2.331600711248553e-05
-0.9999917037964203 -0.004073304923287399 -2.292015593060524e-05
-0.9999920384866302 -0.003990294585596663 -2.263787615185199e-05
-0.9999923473097342 -0.003912137831342427 -2.235074290028325e-05
-0.9999926407941159 -0.003836388600358952 -2.19115683236449e-05
-0.9999929305310183 -0.003760111259319392 -2.1243885144542e-05
-0.9999932294211445 -0.003679768399242846 -2.040583401943307e-05
-0.9999935518084839 -0.003591094553029756 -1.952853256867535e-05
-0.9999939137553064 -0.003488853911663548 -1.872771238089509e-05
-0.9999943327925274 -0.003366608890042759 -1.809445821558109e-05
-0.9999948270743518 -0.003216444432528969 -1.759969405079476e-05
-0.9999954131368426 -0.003028764779573305 -1.70054411253165e-05
-0.9999961018451208 -0.002792138772800437 -1.598860692857508e-05
-0.9999968925766181 -0.002492916461447396 -1.430467598627665e-05
-0.9999977638771069 -0.002114734268245976 -1.182201253062005e-05
-0.999998658462394 -0.001637986829708685 -8.518063333129438e-06
-0.9999994599496089 -0.001039269635846938 -4.371942947383399e-06
-0.9999999576984723 -0.0002908650401816935 7.625992116224009e-07
-0.9999997952768647 0.0006398406814388461 7.080299586460171e-06
-0.9999983956863109 0.001791202627850544 1.47631239904272e-05
-0.9999948529501209 0.003208348311969388 2.396611700044198e-05
-0.9999877762561503 0.004944302322026863 3.482566952190265e-05
-0.9999750680268565 0.007061236346874317 4.76018606437857e-05
-0.9999536131568242 0.009631593544763209 6.277260826625819e-05
-0.9999188488924559 0.012739273272176 8.090786250261711e-05
-0.9998641713835615 0.01648114905383978 0.0001025150159357939
-0.9997801281374101 0.02096852294058348 0.0001281687692705338
-0.9996533409371299 0.02632817464500121 0.000158660317034882
-0.9994650918846009 0.03270309029404308 0.0001949085056660717
-0.9991894957635913 0.0402528877984949 0.0002378646282228526
-0.9987911940158978 0.04915350939705552 0.000288565850545299
-0.9982225328775847 0.05959575171635154 0.0003481850404664762
-0.9974202291189996 0.07178239215762178 0.000417995611355462
-0.9963015990829346 0.0859236541624552 0.0004993196949655459
-0.9947605468309629 0.1022306325293198 0.0005934991309633787
-0.9926636480648559 0.1209065308473089 0.0007018611259920337
-0.9898468188326243 0.1421358279146177 0.0008256330658452835
-0.9861131732274785 0.1660719022112288 0.000965858776726042
-0.9812327025436465 0.1928240692186111 0.001123293758251254
-0.9749442772578724 0.2224454328770424 0.001298319787074148
-0.9669601557465561 0.2549231934043165 0.001490859866272238
-0.9569727800290555 0.2901727194878674 0.001700337753466332
-0.9446633966510013 0.3280356060004997 0.00192567486279466
-0.9297125482563119 0.368279634077505 0.002165349508391594
-0.9118147239930418 0.4105947692723816 0.002417551582134776
-0.8907056204203536 0.4545726687922202 0.002680772036317579
-0.8662263405721852 0.4996430551416388 0.002957084315554574
-0.8384957947917367 0.5448982339389703 0.003273647318247354
-0.8084462307704282 0.5885576040174885 0.003826056230678116
-0.7801010058016822 0.6256274127450429 0.005723737340835898
-0.9260713448174035 0.3773319916140463 -0.003525962657565085
-0.9372385954439921 0.3486885886256165 -0.0002887428749421582
-0.9490378280355513 0.3151619639428215 0.0003707307199516134
-0.959627557860695 0.281273391802037 0.0004788094566515225
-0.9685721072947556 0.248732485861893 0.0004727024001863748
-0.9758663362453778 0.2183682695787505 0.0004388897413893989
-0.9816765686734026 0.1905543392817611 0.0003978674469129979
-0.9862271980639347 0.165395849843453 0.0003558841411077942
-0.9897455492452312 0.1428413396756921 0.0003153234989113994
-0.9924371955943303 0.122753150445944 0.0002772299691261396
-0.9944773477655953 0.1049511609387217 0.0002420717277639475
-0.9960102015144586 0.08923919749987672 0.0002100207251840354
-0.9971518092558701 0.07542039848179635 0.0001810817260325575
-0.9979941708807143 0.06330569337400165 0.0001551597632590562
-0.998609426485611 0.05271807928045887 0.000132102451689435
-0.9990536643785245 0.04349440434577116 0.0001117248816482518
-0.9993701795120623 0.03548570837680478 9.382443472010619e-05
-0.9995921686242636 0.02855679097535989 7.819354732053982e-05
-0.9997449155151683 0.02258538740356618 6.463280427070184e-05
-0.9998475401787474 0.01746120259535341 5.293799635958957e-05
-0.9999143883676193 0.01308488039648226 4.290010488494467e-05
-0.9999561279662236 0.009367014769195284 3.430905224828584e-05
-0.9999806099336248 0.006227280936104186 2.699847825638548e-05
-0.9999935426537921 0.003593635802825797 2.079506046941862e-05
-0.999999017718882 0.001401542607566551 1.547868473792884e-05
-0.9999999171981642 -0.000406799587744761 1.085170683474683e-05
-0.9999982271899602 -0.001882968530435008 6.815398234710864e-06
-0.9999952789990617 -0.003072778644115455 3.315475781579596e-06
-0.9999919322284589 -0.00401689904697008 1.986203227000743e-07
-0.9999887117717908 -0.004751454704734486 -2.680027200264789e-06
-0.9999859102640031 -0.005308412680473268 -5.318509833142002e-06
-0.9999836643717894 -0.005715849129601207 -7.635178139325337e-06
-0.9999820097026478 -0.005998348076649783 -9.560561796156079e-06
-0.9999809193970266 -0.006177436307349241 -1.107002335745057e-05
-0.9999803310183447 -0.00627195563734357 -1.220345415296498e-05
-0.9999801649451957 -0.00629837659682192 -1.29778124815872e-05
-0.9999803371123746 -0.006270981643533419 -1.333595307417548e-05
-0.9999807677185841 -0.006201936572151498 -1.325539966870728e-05
-0.9999813853914784 -0.006101533154233942 -1.279478697414368e-05
-0.9999821287607371 -0.005978462346599078 -1.212906460025631e-05
-0.9999829471730083 -0.005839968395661071 -1.15031093209141e-05
-0.999983799838479 -0.00569209428707253 -1.110060792668462e-05
-0.9999846550797075 -0.005539809012645102 -1.101006368014927e-05
-0.9999854895472932 -0.0053870743370189 -1.117799670646653e-05
-0.9999862867770819 -0.005236996063910853 -1.140218194176489e-05
-0.9999870359546853 -0.005091933873296262 -1.148878925735389e-05
-0.9999877303733805 -0.004953682791629551 -1.137957146965009e-05
-0.9999883661107394 -0.004823641797614792 -1.108971009851585e-05
-0.9999889415895686 -0.004702827261568095 -1.069213107805835e-05
-0.9999894577566892 -0.004591760939915633 -1.034179437441065e-05
-0.9999899181857808 -0.004490370148593018 -1.013527214965672e-05
-0.9999903288277928 -0.004397971065095103 -1.006941679422255e-05
-0.9999906981835288 -0.004313171042626968 -1.009828350922596e-05
-0.9999910370034614 -0.004233888345475501 -1.011036138335214e-05
-0.9999913573528799 -0.004157537762742216 -9.964723570617249e-06
-0.9999916726239519 -0.004081003641939991 -9.592983222418297e-06
-0.999991997830376 -0.004000524090249917 -9.067312168312987e-06
-0.9999923498116844 -0.003911552794681561 -8.534604804068164e-06
-0.9999927475983373 -0.003808501630657834 -8.127554158962235e-06
-0.9999932121711647 -0.003684501086109874 -7.958772863562715e-06
-0.9999937655660486 -0.00353111380006367 -8.022813317838201e-06
-0.9999944284617803 -0.003338110180115155 -8.113079884928708e-06
-0.9999952157255155 -0.003093293210969868 -7.949252009312225e-06
-0.9999961299570718 -0.00278208861631098 -7.335525227561358e-06
-0.99999715104968 -0.002387017834538957 -6.195214827892967e-06
-0.999998219343236 -0.001887137909104326 -4.568234330876398e-06
-0.999999209403385 -0.001257452317221181 -2.50492239013962e-06
-0.9999998903208416 -0.0004683570233559616 5.491600990901965e-08
-0.9999998673873508 0.0005149903330967354 3.199509687187015e-06
-0.9999984973419238 0.001733570048335337 6.984352360777993e-06
-0.9999947653762279 0.003235597286394803 1.141677175447686e-05
-0.9999871081868256 0.005077714957997024 1.646072000420438e-05
-0.9999731619508876 0.007326314634904669 2.217687268325421e-05
-0.9999494091700429 0.01005874100539401 2.880742993747375e-05
-0.9999106895782977 0.01336456224548853 3.664750117961897e-05
-0.9998495253942059 0.01734717448932836 4.589355051076177e-05
-0.9997552033287268 0.02212532924928627 5.676924039964782e-05
-0.9996125500436467 0.02783424045449132 6.966749006616902e-05
-0.999400324731186 0.03462634390100462 8.506026537414428e-05
-0.9990891426597431 0.04267170404969853 0.0001034065464723816
-0.998638857824692 0.05215760697757694 0.0001252076937934
-0.997995364884215 0.06328687739006586 0.0001510623613966939
-0.9970868306088144 0.07627463033728321 0.0001816407988655318
-0.9958194531035313 0.09134314122882362 0.0002176488788254778
-0.9940729919189104 0.108714392939308 0.0002598176736542586
-0.9916964860369696 0.1286000939655571 0.0003088915272723071
-0.9885047677219678 0.151189254086242 0.0003655677551552531
-0.9842765318758386 0.1766338685564818 0.0004304384302321048
-0.9787547671636407 0.2050337821676121 0.0005039092092980204
-0.9716502040054544 0.2364223709892642 0.0005861330675678294
-0.9626480359556462 0.2707550565048067 0.0006769400381747992
-0.9514176212995482 0.3079024325998709 0.0007758091201488025
-0.9376244387439445 0.3476487223432328 0.0008818861719769545
-0.920943914991646 0.3896938762780676 0.0009940982011639771
-0.9010789917181108 0.433653566008512 0.001111473064571113
-0.8777900912553227 0.4790438730166565 0.001234268679531125
-0.8509652965310822 0.5252201337295881 0.001369388491468677
-0.8208217219648642 0.5711823350291934 0.001562338386302166
-0.7885901934746286 0.6149155290143424 0.002097363263443419
-0.7594044325876437 0.6506035406083774 0.004465502668404573
-0.9007552358156072 0.4343108984809472 -0.003748147734769363
-0.9165484841255142 0.3999232209285128 -0.0005418573479459305
-0.9331066841247544 0.3595996271851288 0.0001554671070585259
-0.9475878792837312 0.3194951025894345 0.0003007589183899689
-0.9595377543223587 0.2815798162536905 0.0003242044757736192
-0.9691190764540153 0.2465930189422139 0.000314104888195973
-0.9766616751009979 0.2147833484195349 0.0002926270747470642
-0.9825201734229211 0.1861559494297163 0.0002670372879385821
-0.9870221525887253 0.1605839734366438 0.0002403630967125235
-0.9904502094503062 0.1378707248124764 0.0002141016736055403
-0.9930388225512492 0.1177873556875546 0.0001890665532055738
-0.9949777811913471 0.1000958914113275 0.0001657049049175221
-0.9964181379836941 0.08456283752747111 0.0001442442723809615
-0.9974786757706579 0.07096672329330932 0.0001247710901294803
-0.9982519540675798 0.05910181630987094 0.0001072806235530636
-0.99880956729074 0.04877950264170956 9.170884223434188e-05
-0.9992065357976676 0.03982829073149118 7.795275351920096e-05
-0.9994848823999301 0.03209307577573627 6.588816412300397e-05
-0.9996765010842973 0.02543403452443253 5.538652156165103e-05
-0.9998054342851487 0.01972540062202174 4.63053507932046e-05
-0.9998896695645196 0.01485419862116239 3.848997652064597e-05
-0.9999425488984625 0.01071904345560254 3.177802211477158e-05
-0.9999738695075424 0.007229081808972007 2.604440654402631e-05
-0.9999907417182402 0.004303025720911689 2.115297780508423e-05
-0.9999982547126375 0.001868230574057544 1.691746947071286e-05
-0.9999999900846133 -0.0001402046802531218 1.316893818829158e-05
-0.9999984156282482 -0.001780068626424061 9.832495043316151e-06
-0.9999951869034623 -0.003102599333815706 6.876273079989554e-06
-0.9999913754587726 -0.004153190421397811 4.1707624617847e-06
-0.9999876391637986 -0.004972073719931027 1.592281213446742e-06
-0.9999843490858709 -0.005594781729630511 -8.392234189919803e-07
-0.9999816835641849 -0.006052481060367459 -3.02513812298063e-06
-0.9999796958729505 -0.006372426384857064 -4.879629720276537e-06
-0.9999783617650643 -0.006578446714021528 -6.363069241859519e-06
-0.9999776125610507 -0.006691361625811049 -7.502900955401428e-06
-0.9999773577412067 -0.006729333984772582 -8.308763141615545e-06
-0.999977500475338 -0.006708089669854761 -8.722170839273277e-06
-0.9999779481475816 -0.006641019688509497 -8.720608445571495e-06
-0.9999786175533401 -0.006539446933828903 -8.3612337727357e-06
-0.9999794369721633 -0.006412922248070864 -7.815037777703899e-06
-0.9999803470789574 -0.006269402063067137 -7.322485801239286e-06
-0.9999813000252288 -0.006115517144615858 -7.064487388250556e-06
-0.9999822585414241 -0.005956723229513465 -7.124562530118783e-06
-0.999983195016708 -0.005797381201551871 -7.441772436709853e-06
-0.9999840898557097 -0.005640919648231296 -7.808286518929768e-06
-0.9999849300041384 -0.005489963584792598 -8.028430210636709e-06
-0.9999857072131956 -0.005346522667875661 -8.042786797810376e-06
-0.999986416588926 -0.005212156537631785 -7.86546887793634e-06
-0.9999870560707925 -0.005087989142251079 -7.573483111083525e-06
-0.9999876265387295 -0.004974607091915866 -7.329323335020848e-06
-0.9999881318784584 -0.004871965715037205 -7.232025813475047e-06
-0.9999885787307061 -0.004779367658507181 -7.275066964981654e-06
-0.9999889766656963 -0.004695369225036381 -7.411746189652094e-06
-0.9999893378576965 -0.004617804045478795 -7.531438459679532e-06
-0.9999896761484718 -0.004543956467585668 -7.489669643947879e-06
-0.9999900071041972 -0.004470530131004948 -7.217688357495912e-06
-0.9999903483744786 -0.004393530666649817 -6.794808268622689e-06
-0.9999907200114364 -0.00430811447978241 -6.374763435110412e-06
-0.9999911449769679 -0.004208316823442288 -6.096362896126008e-06
-0.9999916489494192 -0.004086807368625595 -6.078882970112878e-06
-0.9999922594320317 -0.003934594778556476 -6.320443751660252e-06
-0.9999930032475507 -0.003740776938646353 -6.621095130034378e-06
-0.9999939017444196 -0.003492338597080287 -6.715270367684305e-06
-0.999994963731038 -0.003173715697423127 -6.421142022253998e-06
-0.9999961739608957 -0.002766230536078716 -5.6736798343038e-06
-0.9999974743558 -0.002247501180383764 -4.523813410435963e-06
-0.9999987346379265 -0.001590821598365631 -3.031072391808032e-06
-0.9999997077221726 -0.000764561470863934 -1.151476724615199e-06
-0.9999999639485347 0.0002685173134381893 1.175373423133824e-06
-0.9999987953024472 0.001552217089409851 3.970045878716509e-06
-0.9999950762211806 0.003138069718920785 7.19958900545571e-06
-0.9999870631183289 0.00508659804487861 1.078464342251897e-05
-0.9999721086963045 0.00746870887366294 1.473858736131874e-05
-0.9999462611531402 0.01036698777635878 1.924318245902731e-05
-0.9999037085327879 0.01387706961502152 2.452095089097084e-05
-0.9998360120772727 0.01810933491959308 3.069503928580291e-05
-0.9997310629905899 0.02319052078737834 3.791193522237369e-05
-0.9995716898202578 0.02926490645581731 4.64758662025672e-05
-0.999333829083313 0.03649513430472451 5.676057830276356e-05
-0.9989841615114733 0.04506262610247807 6.912283601393887e-05
-0.9984771318692374 0.05516711053755281 8.395902797356407e-05
-0.9977513070190007 0.06702476398151211 0.000101760001511256
-0.9967250867574809 0.08086461696733729 0.0001230894690000949
-0.9952918882046898 0.09692283118945884 0.0001485535694105089
-0.9933150988600314 0.1154343207589987 0.0001787948375322184
-0.9906233095452865 0.136621420658116 0.0002144828685968035
-0.9870065829456336 0.1606796177331882 0.0002562559265461165
-0.9822147213225326 0.1877608809067558 0.0003046611533595228
-0.9759585837617174 0.2179557595767107 0.0003600682734489288
-0.9679153478095013 0.2512761446876605 0.0004225940338076672
-0.9577381324607268 0.287641143693628 0.0004920216058304658
-0.9450696889650443 0.3268684148743809 0.0005677649368856024
-0.929559243171494 0.3686722017930554 0.0006488909765715175
-0.9108818741849753 0.4126665386654824 0.0007342663795492653
-0.8887625723985558 0.458367115538236 0.0008229803512107045
-0.8630159161760369 0.505175899823435 0.0009157862291937355
-0.8336371805254572 0.5523115132710013 0.001021544841134868
-0.8010566439764211 0.5985873628161545 0.001192567831998
-0.766934285133576 0.6417233062905273 0.001732180765415246
-0.7370311291346543 0.6758461230710076 0.004139156482240963
-0.871839796263445 0.4897768170203529 -0.003746886804541511
-0.8920570328612167 0.4519223773675676 -0.0006441717839021365
-0.9136301824632773 0.406546291117048 5.358255529423911e-05
-0.9325696302973174 0.3609900780548093 0.0002195292848954365
-0.948146356401818 0.3178339468088153 0.0002628647705153606
-0.9605670832233438 0.2780482090848958 0.0002684259288734422
-0.9702914688023816 0.2419388324546679 0.0002586885936206486
-0.9778083375193471 0.2095013045481066 0.0002418063098303817
-0.9835610475675729 0.1805757918493275 0.0002215982089896075
-0.987926137336848 0.1549254888667112 0.0002001651956608803
-0.9912123341425516 0.1322802959143999 0.0001787637344963415
-0.993667299309907 0.1123622412847335 0.0001581632903765768
-0.9954867838583312 0.09490017856162401 0.0001388249530432125
-0.9968238547206167 0.07963785543290161 0.0001210040437755349
-0.9977972133992161 0.06633784701218416 0.0001048167288537786
-0.9984982820383673 0.05478295916620299 9.028522942567585e-05
-0.9989970431552356 0.04477612959360007 7.736739147405976e-05
-0.9993467523164726 0.03613951135366029 6.598209876100214e-05
-0.9995876910820392 0.02871314503537786 5.603084113028924e-05
-0.9997501282968961 0.02235349467533767 4.739344552712952e-05
-0.9998566435508043 0.01693194474015673 3.993288746351489e-05
-0.9999239404900009 0.01233337393480185 3.350124669983184e-05
-0.9999642564353105 0.008454884312706362 2.798275377660278e-05
-0.9999864554904048 0.005204641699054328 2.324910235218538e-05
-0.999996872851759 0.002500784074186239 1.912372259329415e-05
-0.9999999633295511 0.0002703744151910654 1.544576074098373e-05
-0.9999987965448026 -0.001551374076619219 1.214167652129636e-05
-0.9999954343446547 -0.003021788472714223 9.179922950515068e-06
-0.9999912154163061 -0.004191544910155156 6.440855817998624e-06
-0.9999869671487847 -0.005105440044100502 3.811983261446001e-06
-0.9999831627604707 -0.005802946995165563 1.317800866071196e-06
-0.9999800372194876 -0.006318636057490707 -9.405207756052817e-07
-0.999977670561374 -0.006682691853227747 -2.871006930018757e-06
-0.9999760464217256 -0.006921456724016337 -4.426300643815855e-06
-0.9999750927135425 -0.007057897766359279 -5.626841844609209e-06
-0.9999747093635739 -0.00711200332148391 -6.480002931028083e-06
-0.9999747872169945 -0.007101047966939894 -6.935258245169963e-06
-0.999975220724821 -0.007039736331754555 -6.980266782969975e-06
-0.9999759144456678 -0.00694049594462663 -6.677763359878147e-06
-0.9999767858071703 -0.006813795442801883 -6.19872848839437e-06
-0.9999777662900897 -0.006668350025919465 -5.780491841107407e-06
-0.9999788005040722 -0.006511413906242952 -5.601600983862452e-06
-0.9999798451293781 -0.00634896070651519 -5.742087756061277e-06
-0.9999808678550669 -0.006185780967321508 -6.136024676635511e-06
-0.9999818455663048 -0.006025653042930026 -6.573631505034517e-06
-0.9999827626199184 -0.005871491799602774 -6.861689662487294e-06
-0.9999836089185735 -0.005725543295485589 -6.939480510893782e-06
-0.9999843783521801 -0.005589544270137238 -6.815836562852043e-06
-0.999985068169489 -0.005464741064830785 -6.569342103193752e-06
-0.9999856789997082 -0.005351799220626965 -6.371353889211634e-06
-0.9999862148687265 -0.005250717330066474 -6.327438219921605e-06
-0.9999866829543832 -0.005160801541815082 -6.429273425009394e-06
-0.9999870937489646 -0.005080579846471329 -6.627416564252123e-06
-0.9999874607067385 -0.005007832156358169 -6.810483624683901e-06
-0.9999877993585654 -0.004939745680370386 -6.828376608518074e-06
-0.9999881274566753 -0.004872874099781272 -6.610535293359338e-06
-0.9999884654011282 -0.004803022562498898 -6.241820494029883e-06
-0.999988836711371 -0.004725083922273493 -5.87931527482622e-06
-0.9999892687071839 -0.004632757103774304 -5.664685335746186e-06
-0.9999897924146551 -0.00451829987503765 -5.721337602205695e-06
-0.9999904417493579 -0.00437222750329829 -6.048378723740979e-06
-0.9999912510357566 -0.004183038410996037 -6.449333190675877e-06
-0.9999922500226279 -0.003936984913460971 -6.668786386717068e-06
-0.9999934563902435 -0.003617614411912557 -6.531491665359583e-06
-0.9999948634092098 -0.003205170746274697 -5.973469034269736e-06
-0.9999964195561509 -0.002675976350877208 -5.044549824864856e-06
-0.9999979964115427 -0.002001788816320751 -3.799272791708796e-06
-0.9999993397155517 -0.001149157795283303 -2.19594962350696e-06
-0.999999996903471 -7.869576141637596e-05 -1.874557074723251e-07
-0.9999992113188955 0.001255928588191277 2.228921975355829e-06
-0.9999957682226329 0.00290921154734628 4.999823389912434e-06
-0.999987772714507 0.004945134684001045 8.027200572816913e-06
-0.999972333033035 0.007438618194524568 1.130595028464036e-05
-0.9999451156866037 0.01047689790897467 1.499029868522842e-05
-0.9998997279704844 0.01416098984066524 1.92687132656828e-05
-0.9998268657013129 0.01860747254364747 2.423686907617762e-05
-0.9997131528828346 0.02395017853905256 3.001681353271213e-05
-0.9995395909444549 0.03034146954657144 3.688286751283119e-05
-0.9992795188898077 0.03795314330127351 4.517639663323764e-05
-0.9988959745155532 0.04697689907486473 5.522619465652408e-05
-0.9983383624794406 0.05762386188189862 6.740685658669083e-05
-0.9975383746599757 0.07012263775186763 8.21915667321972e-05
-0.99640517634936 0.08471549160166558 0.0001001343520798562
-0.9948199944983501 0.1016521701712067 0.0001218432841258371
-0.9926304478507395 0.1211807414667149 0.0001479770831733782
-0.989645219568336 0.1435350384405574 0.0001792356196928035
-0.9856299804893548 0.1689186039914193 0.0002163010493673751
-0.980305752408596 0.1974856053301462 0.0002597729812489682
-0.9733510560501728 0.2293199196338899 0.0003100727640716196
-0.9644090618492986 0.2644144974750228 0.0003673526728058865
-0.9531004377500938 0.3026538773200306 0.0004313974165534974
-0.9390417352882046 0.3438028036723524 0.00050157147769428
-0.9218683478208686 0.3875027955377017 0.0005768331540718963
-0.9012613261050931 0.4332754226477186 0.0006558938401103052
-0.876980529354045 0.480525344739964 0.0007376967107763842
-0.848916707385255 0.5285260131566669 0.0008230060117424599
-0.8172018484532246 0.5763508396310721 0.0009211629555922641
-0.7824902960236767 0.6226618328741618 0.001085592265829509
-0.7467569202547181 0.6650950964296796 0.001617020990331189
-0.7160150507589499 0.6980735178711921 0.003976271318256016
-0.841342809235647 0.5404891854626868 -0.003703747473958783
-0.8655454478460931 0.5008298643926864 -0.0007243240361501562
-0.891915599581145 0.4522019036474584 -3.951481591169776e-05
-0.915414009983342 0.4025135656235124 0.0001407666987074872
-0.9349052917541728 0.3548972450276357 0.0002022914695363583
-0.9505097644710706 0.3106946049216636 0.0002238698751403811
-0.9627430542668858 0.2704177509458601 0.0002267912051350955
-0.9721980402204018 0.2341600359432369 0.0002194508403619073
-0.9794274084671708 0.2017967021523863 0.0002062612480527988
-0.9849057434696592 0.1730914221200617 0.0001899182241074915
-0.9890238029417867 0.1477561760806314 0.0001721760574697194
-0.9920953922770162 0.125485891029219 0.0001541924645742093
-0.9943684180349163 0.105978443667768 0.0001367205007833764
-0.996036459989658 0.08894580325069069 0.0001202304435935964
-0.9972493448698739 0.07411972161934212 0.0001049937033692549
-0.9981222008775104 0.06125409217654478 9.114308627518043e-05
-0.998742933249439 0.05012531384858506 7.871395733563865e-05
-0.9991782573646564 0.04053153623189035 6.767873319822853e-05
-0.9994784978924618 0.03229131291133452 5.797490733956718e-05
-0.9996813683271685 0.02524201593754978 4.950684856089529e-05
-0.9998149285820344 0.01923816018802108 4.215544073830901e-05
-0.999899886168869 0.01414978299574034 3.578624940545339e-05
-0.9999513789738294 0.009860972101504309 3.029109624823438e-05
-0.9999803523666141 0.006268510835187112 2.554703009868355e-05
-0.9999946185596631 0.003280608844922572 2.138505280442919e-05
-0.9999996671629456 0.0008156975085716115 1.765140410810231e-05
-0.9999992816955652 -0.001198500998917896 1.427267305809564e-05
-0.9999960073339237 -0.002825807925009945 1.121525913153819e-05
-0.9999915023719274 -0.004122513058013455 8.367921125618123e-06
-0.9999867991221519 -0.005138243837996957 5.629724067571775e-06
-0.9999824966250218 -0.005916623565103392 3.029290403581331e-06
-0.9999789021262768 -0.006495791089573016 6.678714130026571e-07
-0.9999761326394154 -0.006908990495713241 -1.359511079369481e-06
-0.9999741862842426 -0.007185176140162352 -3.000161967304005e-06
-0.9999729917875653 -0.007349535849274043 -4.269161506304158e-06
-0.9999724421974502 -0.00742393554033036 -5.172977429681283e-06
-0.9999724176997975 -0.007427234174036561 -5.669669390041692e-06
-0.9999728007875573 -0.007375476386691928 -5.758246826919137e-06
-0.9999734843050081 -0.007282215086775772 -5.507384086546423e-06
-0.9999743750642339 -0.007158853889839633 -5.087056955806745e-06
-0.999975395410766 -0.007014880661864169 -4.730914695914427e-06
-0.9999764823667352 -0.006858184318554577 -4.615499525121352e-06
-0.9999775864514802 -0.006695264853164934 -4.818497361809115e-06
-0.9999786704878859 -0.006531350664565909 -5.270347927614724e-06
-0.9999797076452006 -0.006370578045175708 -5.760985585393222e-06
-0.9999806794734392 -0.006216159796108077 -6.101496620321398e-06
-0.9999815737982793 -0.006070586882165213 -6.230742454578594e-06
-0.9999823830700714 -0.005935782312910687 -6.15095470457308e-06
-0.9999831036300537 -0.005813124730575978 -5.938971793365838e-06
-0.9999837356212283 -0.005703372658806323 -5.773012675224479e-06
-0.9999842829672967 -0.005606584087394452 -5.766503575314415e-06
-0.9999847531399122 -0.005522087718065376 -5.911198389109388e-06
-0.9999851573064336 -0.005448406091704532 -6.155213705388837e-06
-0.9999855099456091 -0.005383294348163438 -6.386007120303659e-06
-0.9999858280470949 -0.005323876724829949 -6.448617735263278e-06
-0.9999861313710722 -0.005266595312827702 -6.271139424607585e-06
-0.9999864429614248 -0.005207096891974464 -5.942569782521993e-06
-0.9999867897804782 -0.00514006156914673 -5.621272683510865e-06
-0.9999872036041447 -0.005058912754293775 -5.450373436315707e-06
-0.9999877210722832 -0.004955569975843038 -5.556566445691843e-06
-0.9999883830332491 -0.00482014141434488 -5.940829393137772e-06
-0.99998923220045 -0.004640629489039534 -6.410879379828927e-06
-0.9999903081430952 -0.004402678130570017 -6.719785739942949e-06
-0.9999916395874796 -0.004089096514131357 -6.696418410681315e-06
-0.9999932315834 -0.00367923198546456 -6.275748816483291e-06
-0.9999950439751076 -0.00314833208649374 -5.504098265812162e-06
-0.9999969572353109 -0.002466880722153156 -4.429716960143262e-06
-0.9999987201186668 -0.001599922485045726 -3.011590342410908e-06