# OOMMF: rectangular mesh v1.0
# Segment count: 1
# Begin: Segment
# Begin: Header
# Title: 
# Desc: time = 1.4475006028878018e-10
# Desc: stepsize = 4.3282976763063884e-13
# Desc: step = 300
# meshunit: m
# valueunit: (none)
# valuemultiplier: 800000.0000000002
# xmin: 0
# ymin: 0
# zmin: 0
# xmax: 4e-07
# ymax: 1e-07
# zmax: 4e-09
# ValueRangeMaxMag: 1
# ValueRangeMinMag: 0.9999999999999996
# meshtype: rectangular
# xbase: 2e-09
# ybase: 2e-09
# zbase: 1e-09
# xstepsize: 4e-09
# ystepsize: 4e-09
# zstepsize: 2e-09
# xnodes: 100
# ynodes: 25
# znodes: 2
# End: Header
# Begin: Data Text
-0.9444972105455891 0.328513738038523 -0.001934732942048997
-0.9512736557228391 0.3083463958065299 0.0009654640476954551
-0.9595035973958969 0.2816927153269746 0.001435519434998149
-0.9674705995065112 0.2529795520269296 0.001409023337511622
-0.9744617895111165 0.2245496884508015 0.001287710930197462
-0.9802802032290929 0.1976092073550473 0.001150793481828256
-0.9849695930801508 0.1727248267506427 0.001017315822281142
-0.9886695748625901 0.1501055446750687 0.0008928599137447694
-0.9915447161908953 0.129763125931577 0.00077906506946311
-0.9937524943545594 0.1116043134968713 0.0006761456817512537
-0.9954307991172273 0.09548394317934231 0.0005837497428357598
-0.9966948183300152 0.08123538520315451 0.0005013032943534582
-0.9976381219895407 0.06868765743024469 0.000428100370522092
-0.9983353670520145 0.05767462944377195 0.0003633340645537872
-0.9988453828500119 0.04803964412997656 0.0003061879783208058
-0.9992140885346211 0.03963760562631394 0.0002559182262088618
-0.9994770455424131 0.03233559252549782 0.0002118722108306464
-0.9996615982975269 0.02601266611016696 0.0001734677909455217
-0.9997886268156307 0.02055923256424647 0.000140165917866695
-0.9998739587907863 0.01587621217635483 0.0001114404427049966
-0.9999294958028269 0.01187416912811483 8.678145364962638e-05
-0.9999641061590742 0.008472430663228918 6.566688546176752e-05
-0.9999843283969165 0.005598275644996995 4.764839894322838e-05
-0.9999949231833517 0.003186307648017688 3.24205828932265e-05
-0.999999306033303 0.00117794039608503 1.973158018668997e-05
-0.9999998851027234 -0.0004792791458793952 9.27576901929476e-06
-0.999998321375238 -0.00183227895909625 7.224570779491354e-07
-0.9999957281870371 -0.002922938434129725 -6.2118623193926e-06
-0.999992823440314 -0.003788525842013228 -1.182424725328294e-05
-0.9999900443601174 -0.004462164527476453 -1.638229410489708e-05
-0.9999876333645858 -0.00497319981193239 -2.003808149935735e-05
-0.9999857023835577 -0.005347383103749962 -2.285616758988637e-05
-0.9999842789481007 -0.005607248428200014 -2.49341326791815e-05
-0.9999833386879979 -0.00577249076709452 -2.639599444026601e-05
-0.9999828285622702 -0.005860190554324591 -2.73362091674217e-05
-0.9999826820740484 -0.005885131377616944 -2.794029820068939e-05
-0.9999828288620137 -0.005860134296762828 -2.841035825167538e-05
-0.9999832012251816 -0.005796243234494161 -2.884101262977854e-05
-0.9999837381616951 -0.005702854822147552 -2.930937084992792e-05
-0.9999843868277183 -0.00558795229271973 -2.983229657995304e-05
-0.9999851031539626 -0.005458255277158539 -3.032306137601483e-05
-0.9999858521230321 -0.005319267990498308 -3.068905585493015e-05
-0.9999866063241583 -0.005175540601670739 -3.085082160515147e-05
-0.9999873448995173 -0.005030814616560552 -3.074259201389901e-05
-0.9999880529564321 -0.004888049088099179 -3.034000304850449e-05
-0.9999887198024762 -0.004749672229598682 -2.969033187942542e-05
-0.9999893384546846 -0.004617590664197949 -2.886901399599132e-05
-0.999989905302312 -0.004493162831420881 -2.795072360499985e-05
-0.9999904190636278 -0.004377333543444223 -2.70554882191452e-05
-0.9999908810190734 -0.004270502159104736 -2.626796233942819e-05
-0.9999912947224628 -0.004172507939030136 -2.56279287068816e-05
-0.9999916654831622 -0.004082686626658884 -2.51817260758281e-05
-0.9999920007166093 -0.003999735330386155 -2.490139018908942e-05
-0.9999923095249091 -0.003921770105760749 -2.470375250015226e-05
-0.9999926024454051 -0.003846355946088612 -2.45030882746437e-05
-0.9999928918020591 -0.003770379481454133 -2.416445119020259e-05
-0.999993191291115 -0.003690097161241698 -2.354467259048951e-05
-0.9999935159593429 -0.003601045701295614 -2.256386579084279e-05
-0.9999938824982209 -0.003497787532108931 -2.117816863576359e-05
-0.9999943084158351 -0.003373834599238847 -1.939155767156326e-05
-0.9999948112697 -0.003221356008213623 -1.729579967591306e-05
-0.999995406995518 -0.003030802375527984 -1.499427968636472e-05
-0.9999961058144755 -0.002790734460730325 -1.253209281905278e-05
-0.9999969063458037 -0.002487408328025297 -9.931306650004047e-06
-0.9999977858047918 -0.00210436092929141 -7.112861137373442e-06
-0.9999986843981931 -0.00162209341594952 -3.851321894652484e-06
-0.9999994823461361 -0.001017500591449039 7.560881681427648e-08
-0.9999999653528941 -0.0002631921849126516 4.907577280528761e-06
-0.9999997733322591 0.0006732133550068893 1.091826510812047e-05
-0.999998325459672 0.001829957177757493 1.829149822113727e-05
-0.9999947110952193 0.003252236544943565 2.71853668284838e-05
-0.9999875329336287 0.004993249750354761 3.787143210606733e-05
-0.9999746851462189 0.007115229688179112 5.07267654640772e-05
-0.9999530413429487 0.009690754697043434 6.619960892111837e-05
-0.9999180212890425 0.01280404207328799 8.489988684573582e-05
-0.9998629979854986 0.01655215062014187 0.0001075606725235826
-0.9997784919206048 0.02104635133243562 0.0001348649416287431
-0.999651090239122 0.02641343839758059 0.0001674985121162127
-0.9994620263191403 0.03279657598997336 0.000206274990230598
-0.9991853502021464 0.04035557420563483 0.0002521347793862961
-0.9987856219225875 0.04926649697866532 0.0003061309541257507
-0.9982150873986962 0.05972020429706657 0.0003694432700551421
-0.9974103455406133 0.07191944122189821 0.00044337668396495
-0.9962885862635757 0.08607422839858368 0.0005292320034947761
-0.9947435826478973 0.102395361969004 0.000628194286680701
-0.9926417738291623 0.1210857515572878 0.0007413630020445509
-0.9898189477416778 0.1423295266577556 0.0008697890186699834
-0.9860781272176943 0.1662795779590135 0.001014384846314673
-0.9811892845514296 0.1930445684332899 0.001175789036285357
-0.9748913725421494 0.2226768461465196 0.001354227869679032
-0.9668968397885471 0.2551628901635983 0.001549416109305007
-0.9568984060686578 0.2904175282532896 0.001760609698702535
-0.9445776703907041 0.3282820092963624 0.001986698671908512
-0.9296155786552639 0.3685239742727814 0.002226276629859514
-0.911707038585068 0.4108334656716194 0.002477756786116858
-0.8905881382555275 0.4548024415708183 0.002739916016104385
-0.8661002864847996 0.4998611831717169 0.003015179782155357
-0.838362561972599 0.545102850592854 0.003331209732868957
-0.8083072974545717 0.5887480160974086 0.003884124489702023
-0.7799579742902716 0.6258051723052909 0.005783135564791902
-0.9258041525293697 0.377989097399999 -0.003303544476640911
-0.9370135632530548 0.3492929616755313 -9.593617072795913e-05
-0.9488574693530278 0.3157043189263045 0.000534662739953626
-0.959486037777998 0.2817554988797766 0.0006181909785069198
-0.9684622992971647 0.2491594361527121 0.0005917905974083258
-0.9757816978310577 0.2187459376439258 0.0005412413672802055
-0.9816116040565955 0.1908885073683038 0.0004863498102470622
-0.9861774775576209 0.1656918690930589 0.0004327522804077681
-0.9897075846553665 0.1431039856715774 0.0003823094941600187
-0.9924082767048245 0.1229865832389351 0.0003356649707489121
-0.9944553835038782 0.105158948080027 0.0002930168195303441
-0.9959935793672553 0.08942441023920529 0.0002543866594080475
-0.9971392811241502 0.07558575122336221 0.0002196615861464668
-0.9979847707567684 0.06345361903795776 0.0001885962512446802
-0.9986024112259013 0.05285071814322962 0.0001608899002391368
-0.9990484647038719 0.04361360572660842 0.0001362657696134851
-0.9993663593736934 0.03559307016280389 0.000114492598079007
-0.9995893930073418 0.0286537308596277 9.536790450862998e-05
-0.9997429266714501 0.02267320836638225 7.869420600202498e-05
-0.9998461407757898 0.01754111306735079 6.425042763401616e-05
-0.999913428337758 0.01315800694264103 5.179892226820698e-05
-0.9999554944582445 0.009434374206321565 4.106217910388317e-05
-0.9999802192585656 0.006289680407848126 3.181128165880003e-05
-0.9999933324876469 0.003651630763156259 2.393782979264717e-05
-0.9999989405272067 0.001455555827279039 1.736944271621055e-05
-0.9999999364348634 -0.0003563525346303501 1.196412259588405e-05
-0.9999983150186568 -0.001835729568034754 7.536569373146802e-06
-0.9999954138033244 -0.003028589915530016 3.929515300702185e-06
-0.9999920963513108 -0.003975831232883337 9.580527181708959e-07
-0.9999888902075832 -0.004713752116922255 -1.544575769317043e-06
-0.9999860899025531 -0.005274465672304973 -3.643435842487824e-06
-0.999983833812686 -0.005686130924606595 -5.328236784718555e-06
-0.9999821592627605 -0.005973366911511646 -6.627743719782965e-06
-0.9999810413794679 -0.006157663827687432 -7.603934804563062e-06
-0.9999804207263689 -0.006257642930443359 -8.29875080331741e-06
-0.9999802214380792 -0.006289408104127371 -8.851537045546909e-06
-0.9999803626950128 -0.006266907970521506 -9.425456509634284e-06
-0.9999807664412905 -0.006202148482064546 -1.008442002739092e-05
-0.9999813621304608 -0.006105347932287557 -1.087810635337379e-05
-0.9999820885567128 -0.00598518392484179 -1.179578591769404e-05
-0.9999828946272776 -0.00584895639304848 -1.272645848719023e-05
-0.9999837396537955 -0.005702652382165402 -1.355795199305015e-05
-0.9999845917675599 -0.005551218423618048 -1.419434161681128e-05
-0.9999854267060514 -0.005398718692212303 -1.456015896731802e-05
-0.9999862270724683 -0.005248376076994481 -1.462613323904821e-05
-0.9999869803688536 -0.005102831021135167 -1.443437881149874e-05
-0.9999876783975108 -0.004964157084964156 -1.405673649408317e-05
-0.9999883168292236 -0.004833841231412809 -1.356486727568821e-05
-0.999988894052806 -0.004712918429687509 -1.307365923833996e-05
-0.9999894113945761 -0.004601840752885572 -1.266545979810177e-05
-0.999989872790815 -0.004500462477705251 -1.238127022206223e-05
-0.9999902842319983 -0.004408093819613905 -1.226721086435932e-05
-0.999990654123217 -0.004323368475426196 -1.229822362250206e-05
-0.9999909928407265 -0.004244300141111203 -1.239877962455069e-05
-0.9999913124939833 -0.004168306674004045 -1.249126147469544e-05
-0.9999916273082142 -0.00409208485242565 -1.245110215960954e-05
-0.9999919532001422 -0.00401165643773723 -1.214865157982186e-05
-0.9999923078196598 -0.003922265772023229 -1.152058358814444e-05
-0.9999927109022426 -0.003818118813740023 -1.054076500367242e-05
-0.9999931834057154 -0.003692296962185482 -9.232849917813754e-06
-0.9999937467371047 -0.00353644272567653 -7.715867284544718e-06
-0.999994420943598 -0.003340365873724615 -6.124321618693055e-06
-0.9999952201949478 -0.003091854890032675 -4.538309030076131e-06
-0.999996146238891 -0.002776238139085802 -3.026701284757187e-06
-0.9999971774499335 -0.002375939753121128 -1.566798533393497e-06
-0.9999982512987657 -0.001870133527341702 3.55106295019484e-09
-0.9999992384457127 -0.001234141256875911 1.83083447228129e-06
-0.9999999037605602 -0.0004387053284999184 4.062539351344918e-06
-0.9999998483015077 0.0005507720194348966 6.866136855791261e-06
-0.9999984243729746 0.001775146581034694 1.030453078727706e-05
-0.9999946118400302 0.003282694600977551 1.438970343935972e-05
-0.9999868400781169 0.005130234034976437 1.921792430622283e-05
-0.9999727358953946 0.0073842293155811 2.496585233198574e-05
-0.9999487689737043 0.01012217435133943 3.184923908056027e-05
-0.9999097593657205 0.01343396846556792 4.020513211883608e-05
-0.9998482031489413 0.01742320620082508 5.045311111911407e-05
-0.9997533562048231 0.02220861989763092 6.292403413738817e-05
-0.9996100056406126 0.02792544634496828 7.790769208205017e-05
-0.9993968552973768 0.034726307750974 9.576898365531026e-05
-0.999084446869319 0.04278147199686891 0.000116951305961689
-0.9986325416016879 0.05227835784054812 0.0001419705883810516
-0.9979869199455361 0.06341985673148363 0.0001714344761080822
-0.997075614650321 0.07642104562161824 0.0002060480107733233
-0.9958046798407213 0.0915039826802454 0.0002464974067566877
-0.9940537258886334 0.1088903300939887 0.0002933580534793704
-0.9916716373333413 0.1287914717568246 0.000347147404591375
-0.9884731036890027 0.1513960253902002 0.0004083864341561001
-0.9842367216989032 0.1768554427184623 0.0004775356028449034
-0.9787054677784988 0.2052688467439181 0.000554884574834881
-0.9715901803883858 0.2366687795624852 0.0006404320941482787
-0.9625762898504545 0.2710098665285377 0.0007337996440228664
-0.9513334967375607 0.308162103336805 0.000834297381846889
-0.9375277095648085 0.3479093391161063 0.0009410387652492899
-0.9208348386487889 0.3899513956650939 0.001053066713762979
-0.9009583128916736 0.4339040797006725 0.00116963690980859
-0.8776589824351682 0.4792838856909736 0.001291304699305981
-0.8508252082647244 0.5254468891841277 0.001425351890120363
-0.8206741318389877 0.5713942175903932 0.001617848752511834
-0.7884363454785253 0.6151125837995757 0.00215368982837753
-0.7592453467781277 0.650788781695133 0.004523827530409613
-0.9004410494370602 0.4349637234965317 -0.003532100043579939
-0.9162807841489597 0.4005363897575099 -0.0003536656431348296
-0.932890045204919 0.3601611629538326 0.000316634341865942
-0.9474166494455909 0.3200023433718822 0.000438850536664661
-0.9594041560110496 0.2820345176198384 0.0004430571862915374
-0.9690156714962833 0.2469988959025301 0.000416914304949471
-0.9765820684427903 0.2151448760350876 0.0003819840932511258
-0.9824591249918615 0.1864777431646564 0.0003449991908841808
-0.9869754835224624 0.1608704439552942 0.0003085242742986274
-0.9904146408336995 0.1381259002203836 0.000273697939599774
-0.9930118055039003 0.1180148126460363 0.0002410933522352978
-0.9949573396387928 0.1002987924414015 0.0002110300736828345
-0.996402737163234 0.08474403607628843 0.0001836385455101986
-0.9974671251490688 0.07112881980550012 0.0001588707905537449
-0.9982433364808766 0.0592471308721389 0.0001365831119754913
-0.9988031799654559 0.04891006123040276 0.0001166247444459541
-0.9992018409521768 0.03994585413813259 9.886837426305939e-05
-0.9994814676572856 0.03219920631671003 8.319983354206995e-05
-0.9996740498137164 0.02553016449593001 6.949714708513967e-05
-0.9998037044322434 0.01981285657739725 5.760040172400172e-05
-0.9998884773006784 0.01493421313798261 4.732102496412924e-05
-0.999941756106562 0.01079272523773438 3.842482517668269e-05
-0.9999733737565497 0.007297316915680935 3.072093045711459e-05
-0.9999904667898538 0.00436643412005164 2.413472501003891e-05
-0.9999981426152968 0.001927282788762937 1.862816393188666e-05
-0.9999999962830446 -8.506017303534166e-05 1.409529265834814e-05
-0.9999985061754911 -0.001728449885170221 1.038172833204405e-05
-0.9999953354819792 -0.003054334664593383 7.351189933720036e-06
-0.9999915606588026 -0.004108355849834596 4.835645452228501e-06
-0.9999878428427847 -0.00493093900019032 2.685091012091358e-06
-0.9999845554487367 -0.005557775029268601 8.460109923459966e-07
-0.9999818789062517 -0.006020121151821015 -6.632319013428173e-07
-0.9999798685945412 -0.006345266124663295 -1.857558064357171e-06
-0.9999785027392905 -0.006556984942160289 -2.78476410477018e-06
-0.9999777162509272 -0.006675851217213036 -3.479267949081615e-06
-0.999977422980395 -0.006719636366355393 -4.073260432085989e-06
-0.9999775298923268 -0.006703707043856977 -4.72339327192585e-06
-0.9999779464795225 -0.006641274308725532 -5.491182675520066e-06
-0.9999785905092277 -0.006543583264940653 -6.421302521192644e-06
-0.9999793904246596 -0.006420176772967174 -7.491971885241819e-06
-0.9999802863687443 -0.006279076383306811 -8.582344158649526e-06
-0.9999812304931861 -0.006126872749909047 -9.572873311571558e-06
-0.9999821852543789 -0.005969008843301436 -1.035881904968902e-05
-0.9999831220249739 -0.005809952427987587 -1.086141176271117e-05
-0.9999840201456318 -0.005653258458327356 -1.105366375240038e-05
-0.9999848647377647 -0.005501833774155473 -1.097794953923701e-05
-0.9999856459601949 -0.005357962193220944 -1.071016637206901e-05
-0.9999863584413285 -0.00522329633217051 -1.032843954042151e-05
-0.999987000014532 -0.00509899038654178 -9.948549007907675e-06
-0.9999875719089691 -0.004985572625244444 -9.654146753696178e-06
-0.9999880783632561 -0.004882933682451087 -9.487590908264949e-06
-0.9999885260448279 -0.004790374580001139 -9.490798185292281e-06
-0.9999889244313773 -0.004706476571504323 -9.636343817712181e-06
-0.999989285339471 -0.004629158590463488 -9.848743940628594e-06
-0.999989622722988 -0.004555693730776226 -1.004822326767421e-05
-0.9999899531048519 -0.004482587100279506 -1.011158588190364e-05
-0.9999902951642429 -0.004405619032148966 -9.913284975011438e-06
-0.9999906698931192 -0.004319726663269011 -9.394957859933701e-06
-0.9999911010432345 -0.004218739322287903 -8.536362589861553e-06
-0.9999916142772873 -0.004095280313982414 -7.365760199733461e-06
-0.9999922364615018 -0.003940428985102085 -6.011393409913616e-06
-0.9999929937776165 -0.003743310614753212 -4.617434717230966e-06
-0.9999939068294055 -0.003490887188125682 -3.271386579335506e-06
-0.999994983476988 -0.003167493745391785 -2.056907259125485e-06
-0.9999962067387717 -0.002754361473890994 -9.688439678290255e-07
-0.9999975152457706 -0.002229238045719501 1.398610274554884e-07
-0.999998774203852 -0.001565755038609549 1.397201837652227e-06
-0.9999997316095259 -0.0007326474681195249 2.926279958533409e-06
-0.99999995284365 0.000307065122408764 4.86906612713719e-06
-0.9999987246950692 0.001597045853803153 7.264651638380851e-06
-0.9999949154859896 0.00318887132301119 1.009223470849756e-05
-0.9999867733843812 0.005143236009098042 1.340329667606663e-05
-0.9999716404556782 0.007531134315638463 1.732913877875653e-05
-0.9999455503364328 0.01043531872370451 2.20341255187089e-05
-0.9999026689722628 0.01395176726878659 2.778889547165539e-05
-0.9998345280807163 0.01819107575097388 3.493756386296798e-05
-0.9997289835422021 0.02327998180829073 4.373420523688324e-05
-0.9995688184937697 0.02936280192928619 5.438593810951963e-05
-0.9993299063645817 0.03660237335297679 6.715865620245744e-05
-0.9989788439551669 0.04518033357860089 8.238764600508201e-05
-0.9984699696731396 0.05529656014899512 0.000100481878171441
-0.9977417192039639 0.06716730521152729 0.0001219448215239047
-0.9967123381729764 0.08102156017640666 0.000147378216223697
-0.9952750770796567 0.09709525984486508 0.0001773689409056265
-0.9932931499437324 0.1156229785108796 0.0002124032246333541
-0.9905949685000224 0.1368266948118675 0.0002529215276411794
-0.9869704309681808 0.1609014566912134 0.0002993812435574585
-0.9821692279106684 0.1879986268734436 0.0003521917952364612
-0.9759022079131496 0.2182079539670947 0.0004116014253956467
-0.9678466809386366 0.2515404025707007 0.0004775674132820265
-0.9576560539277792 0.2879141890438524 0.0005496568884113219
-0.9449734965217166 0.3271462938965224 0.0006271054862612526
-0.929448759032745 0.3689505410436809 0.0007089400995009165
-0.9107575049586605 0.412940838983774 0.0007941415815807145
-0.8886253003781547 0.4586330750635499 0.0008820349118541827
-0.8628672046263249 0.5054297568443241 0.0009736922713079173
-0.8334787624099546 0.5525504408489664 0.001078391943106666
-0.8008901921011627 0.5988099364733247 0.00124907044437389
-0.7667611159944967 0.6419300489417445 0.00178976661135112
-0.736852398577583 0.6760406129620448 0.004199087563364305
-0.8714834389245728 0.490412189647208 -0.003535523388541708
-0.8917484184000234 0.4525312673010204 -0.0004586894249568892
-0.9133762834506209 0.4071163457487374 0.0002141357632052303
-0.9323662501340378 0.3615149332974858 0.0003586278104059488
-0.9479860472301678 0.3183116506643973 0.0003838075410643392
-0.9604420602642243 0.2784796384534303 0.0003739548880013142
-0.9701946895291709 0.2423265176783512 0.0003510545239500815
-0.9777338344100858 0.2098486236099924 0.0003228292772057061
-0.9835039477534003 0.1808864258915974 0.0002927142633141178
-0.9878825509146961 0.1552030820829636 0.0002625075650396867
-0.9911791987877229 0.1325282667146888 0.0002332640731347998
-0.9936422192723064 0.1125837367744881 0.0002056538299749909
-0.9954678870020047 0.09509812576816036 0.0001800642840687994
-0.9968096828077191 0.07981498434854639 0.0001566340164613999
-0.9977866398944023 0.06649663847373193 0.0001353511417077227
-0.9984904425538368 0.05492561002141023 0.0001161568703608461
-0.9989912763161298 0.04490456597413037 9.898961762457264e-05
-0.999342551657467 0.03625544685987381 8.378385107512928e-05
-0.9995846684109181 0.02881814904229784 7.045289338592933e-05
-0.9997479872912777 0.02244901874786055 5.88582779168068e-05
-0.9998551594810525 0.01701933240359935 4.882267969347652e-05
-0.9999229446614594 0.01241382817165864 4.012081641171896e-05
-0.9999636237160686 0.008529371836364673 3.256847341325006e-05
-0.999986092811997 0.00527385074258072 2.60948420816973e-05
-0.9999967095611002 0.002565236792476585 2.066810918880616e-05
-0.9999999452370507 0.0003305504773639746 1.619496368860741e-05
-0.9999988822960365 -0.001495075125702128 1.253177990745752e-05
-0.9999955919159114 -0.002969184680492448 9.543512813978136e-06
-0.9999914188894212 -0.004142716219615657 7.060124069476312e-06
-0.9999871946595926 -0.005060681033320982 4.931138260177646e-06
-0.999983395347449 -0.005762726766375531 3.098891657211732e-06
-0.9999802584848824 -0.006283521148355217 1.576511794172009e-06
-0.9999778667064284 -0.006653277172616765 3.527544834347341e-07
-0.9999762067258808 -0.006898259326786646 -6.155401815502235e-07
-0.9999752107214331 -0.007041160469517388 -1.366521430842529e-06
-0.9999747836199172 -0.007101557587105361 -2.033761608821372e-06
-0.9999748206121875 -0.007096346520802018 -2.771248440213199e-06
-0.9999752186685407 -0.007040030933534011 -3.641247740672273e-06
-0.9999758835085917 -0.006944953509830974 -4.685845823295018e-06
-0.9999767327414969 -0.006821579078721694 -5.874800559356023e-06
-0.9999776972246981 -0.006678697705295262 -7.081743193934762e-06
-0.9999787214082636 -0.006523546867134264 -8.183287886625576e-06
-0.9999797615770835 -0.006362102957779071 -9.066066562765187e-06
-0.9999807843115848 -0.006199267257054889 -9.646939130396139e-06
-0.9999817653128787 -0.006038952202415681 -9.901285949253659e-06
-0.9999826870085359 -0.005884350918507087 -9.871968577136546e-06
-0.999983537650224 -0.005737973125379834 -9.64133286189631e-06
-0.9999843105758279 -0.005601652945291582 -9.298724116214159e-06
-0.9999850028387759 -0.005476679392516818 -8.964620578803798e-06
-0.999985615369767 -0.005363672006956911 -8.726357743908199e-06
-0.999986152507467 -0.005262577208389001 -8.627745061422474e-06
-0.9999866214157356 -0.005172708552265685 -8.704882713310115e-06
-0.9999870325045737 -0.005092616520070242 -8.926158789970397e-06
-0.9999873989200261 -0.005020151024239554 -9.211638579358842e-06
-0.9999877363962966 -0.004952470821908004 -9.474616901425752e-06
-0.9999880637662849 -0.004885921912568956 -9.592706363287059e-06
-0.9999884025915223 -0.004816076545618194 -9.442567441981182e-06
-0.9999887774575222 -0.004737602621954167 -8.966940515789873e-06
-0.9999892165577582 -0.004643996312980575 -8.151403439620584e-06
-0.9999897509332445 -0.004527469390554908 -7.027452012469837e-06
-0.999990413891508 -0.004378594784685483 -5.727277161585849e-06
-0.9999912391338734 -0.00418588534624436 -4.400935777731932e-06
-0.9999922556451172 -0.003935560942672646 -3.139529939185519e-06
-0.999993480085077 -0.00361106399775566 -2.034719804955058e-06
-0.999994903778841 -0.00319255621034929 -1.090981646687601e-06
-0.999996471486097 -0.002656504343387143 -1.693866330478705e-07
-0.9999980496461645 -0.001975019783633804 8.490950760065626e-07
-0.9999993783460219 -0.001115035089499044 2.078074537802491e-06
-0.9999999992926842 -3.743405755653891e-05 3.64995614870076e-06
-0.9999991498296875 0.001303958801199045 5.598818040087055e-06
-0.9999956083003605 0.002963666251287119 7.895715000628796e-06
-0.9999874706795047 0.00500583381449038 1.057488033170537e-05
-0.9999718333793828 0.007505481912379752 1.375276297919734e-05
-0.9999443467223958 0.01055003075710507 1.757681622988061e-05
-0.9998985936886188 0.01424085119040905 2.229114360134961e-05
-0.9998252374172075 0.01869475401730139 2.82109305058788e-05
-0.9997108622596886 0.02404559450252634 3.556696814183809e-05
-0.9995364185246151 0.03044578885028378 4.454513404360036e-05
-0.9992751746493397 0.03806733852543658 5.538159514419835e-05
-0.9988900744420631 0.04710217091998022 6.837948872305988e-05
-0.9983304026790204 0.05776157930263186 8.392383636170441e-05
-0.9975277028467111 0.07027425948597685 0.0001025039537405443
-0.996390965043604 0.08488244356666015 0.0001247141857036207
-0.9948012251481665 0.1018356499420463 0.0001511442604751057
-0.9926059012093588 0.1213815951945138 0.0001822975357456137
-0.9896134686091077 0.1437537301866439 0.0002186432623709541
-0.9855894063828829 0.1691551183766465 0.0002606776139832091
-0.9802546038224813 0.1977392634100109 0.0003088541662868647
-0.9732875640039046 0.2295891670996151 0.0003634636840335388
-0.9643316051684927 0.2646967606168593 0.0004244903988911991
-0.9530077281011057 0.3029455868897452 0.0004914911968540443
-0.9389329779103528 0.3440996153834698 0.0005636358260423768
-0.9217433725939731 0.3877998784167505 0.0006398273524880544
-0.9011206607118929 0.4335678009781278 0.0007188832670814285
-0.876825385019766 0.4808082821735005 0.0007999864412380548
-0.8487488575899519 0.52879541871931 0.0008842404766485554
-0.8170233720444643 0.5766037168698276 0.0009814402641681421
-0.7823031968275211 0.6228967776858201 0.001145679738051918
-0.7465628184886903 0.6653128143401157 0.001678429342290781
-0.7158154244406313 0.6982778489950995 0.004040264305146012
-0.8409531577306293 0.541096627571155 -0.003496588910057943
-0.865202011085985 0.5014231619186001 -0.0005410215518976738
-0.8916274604617527 0.4527697616783737 0.0001210794529123551
-0.915179186395876 0.4030471156593459 0.0002816850436573004
-0.9347176047164693 0.3553911830405556 0.0003262669770019893
-0.9503618089178066 0.3111467839624181 0.0003331370864160265
-0.9626275968830358 0.2708283686354989 0.000323204927824849
-0.9721086344993635 0.2345308294933626 0.0003045471028844994
-0.9793586018593524 0.202130279382463 0.0002812843070868893
-0.9848530717276737 0.1733907772482727 0.0002558784962849275
-0.988983686147156 0.1480243752431397 0.000229931862449855
-0.992064992182988 0.1257259298994109 0.0002045382499003245
-0.9943454960073419 0.1061932296530654 0.0001804044466917652
-0.9960192610917739 0.08913813213530458 0.0001579038484774567
-0.9972365072378123 0.07429219212232223 0.0001371925226551023
-0.9981126766072662 0.06140904488820467 0.0001183291876606126
-0.9987359195929891 0.05026482513683787 0.0001013346405512977
-0.9991731397353404 0.04065746426692416 8.620211751860544e-05
-0.9994748056644959 0.03240536266750336 7.288556342236695e-05
-0.9996787426250499 0.02534576472593187 6.127035578814669e-05
-0.9998130975504994 0.01933306354171071 5.11914792681606e-05
-0.9998986458986312 0.01423713909136478 4.243320229817867e-05
-0.9999505781864572 0.009941829424085375 3.481770040705853e-05
-0.9999798785903006 0.006343627906520262 2.827563210418322e-05
-0.9999943865964667 0.00335056066241253 2.277726643216994e-05
-0.9999996117593405 0.0008809929214978702 1.823843473305598e-05
-0.9999993529981674 -0.001137449910061069 1.452404571344392e-05
-0.99999616676156 -0.002768813825294644 1.149725852589153e-05
-0.9999917188517886 -0.004069661798978356 8.982606084322102e-06
-0.9999870465849184 -0.005089854199550931 6.826373855448874e-06
-0.9999827525803314 -0.005873203317915912 4.964821304341542e-06
-0.9999791472175666 -0.006457950018736887 3.403414624388386e-06
-0.9999763506954499 -0.006877357433423173 2.131516410470977e-06
-0.9999743648896756 -0.007160276688972398 1.107516068800982e-06
-0.999973123496259 -0.007331594986992778 2.867437078301583e-07
-0.9999725251762291 -0.007412752016518573 -4.658075856140552e-07
-0.9999724549968708 -0.007422213001666803 -1.299421793791035e-06
-0.9999727984078531 -0.007375800918209463 -2.276380424619182e-06
-0.9999734496325379 -0.007286975928883755 -3.437091762166709e-06
-0.999974315706034 -0.007167140695234013 -4.743768297080083e-06
-0.9999753182741759 -0.007025866898339357 -6.065237145352886e-06
-0.9999763940218462 -0.006871051313362376 -7.274185086964887e-06
-0.999977492931325 -0.00670921476487063 -8.247435458631157e-06
-0.9999785766334784 -0.006545700491884851 -8.896767702426042e-06
-0.9999796169980268 -0.006384786905630289 -9.200472107854724e-06
-0.9999805935584671 -0.006229961618397477 -9.202643469364697e-06
-0.9999814924617941 -0.006083966881550856 -8.992578755662515e-06
-0.999982305539307 -0.005948826195031755 -8.671407574086808e-06
-0.9999830288389209 -0.00582597323794162 -8.364716790197252e-06
-0.9999836627625703 -0.005716129921899051 -8.165120089823406e-06
-0.9999842115035178 -0.005619312925982584 -8.119563054655675e-06
-0.9999846824661861 -0.005534868092308146 -8.258396163008034e-06
-0.9999850867373571 -0.005461339565639804 -8.545709772673227e-06
-0.9999854385411636 -0.005396538382098327 -8.895316044857564e-06
-0.9999857551581017 -0.005337545880973949 -9.211354775065811e-06
-0.999986057550222 -0.005280588729587832 -9.371909430373767e-06
-0.9999863700554028 -0.005221074390926313 -9.25327302457562e-06
-0.9999867208296181 -0.005153453895755259 -8.796091244139828e-06
-0.9999871426145683 -0.005070950764338869 -7.993513119419466e-06
-0.9999876721366705 -0.004965433246027126 -6.881976777473607e-06
-0.9999883496999774 -0.004827052206197334 -5.595868014992488e-06
-0.9999892174275725 -0.00464381418303596 -4.292333057200812e-06
-0.9999903141327023 -0.004401321547175246 -3.06872972932752e-06
-0.9999916674828679 -0.004082273967378724 -2.021997529887794e-06
-0.9999932803827101 -0.003665949818709208 -1.163078689869394e-06
-0.9999951085596689 -0.003127755841553668 -3.621106958306719e-07
-0.9999970267496859 -0.002438542914215649 4.928586941811252e-07
-0.9999987773326249 -0.00156375540598983 1.511775604654297e-06