# OOMMF: rectangular mesh v1.0
# Segment count: 1
# Begin: Segment
# Begin: Header
# Title: 
# Desc: time = 1.019453657499434e-10
# Desc: stepsize = 3.6306204204038255e-13
# Desc: step = 200
# meshunit: m
# valueunit: (none)
# valuemultiplier: 800000.0000000002
# xmin: 0
# ymin: 0
# zmin: 0
# xmax: 4e-07
# ymax: 1e-07
# zmax: 4e-09
# ValueRangeMaxMag: 1
# ValueRangeMinMag: 0.9999999999999996
# meshtype: rectangular
# xbase: 2e-09
# ybase: 2e-09
# zbase: 1e-09
# xstepsize: 4e-09
# ystepsize: 4e-09
# zstepsize: 2e-09
# xnodes: 100
# ynodes: 25
# znodes: 2
# End: Header
# Begin: Data Text
-0.9447282059496692 0.3278469928476128 -0.002228489151031504
-0.9514685238555992 0.3077452571597606 0.000710498219107738
-0.9596598315398527 0.2811610240185116 0.001219139763503439
-0.9675930323968813 0.2525118242149449 0.001225678851943176
-0.974556613462063 0.2241386322854027 0.001131668937299862
-0.9803531717971583 0.197247620753625 0.00101717957363944
-0.9850255395946151 0.1724061263361588 0.0009021907211128496
-0.988712377889628 0.1498239125231822 0.0007931229934744861
-0.9915774121273352 0.1295135376916823 0.0006923246648631446
-0.9937774290086807 0.1113824983051075 0.0006005532522481483
-0.9954497731509767 0.09528631053320472 0.0005178403600778198
-0.9967092150219897 0.08105889024282099 0.0004438500317485034
-0.9976490088162099 0.06852964521185644 0.0003780676797614544
-0.9983435688319884 0.05753274059577954 0.0003198927118398205
-0.9988515332342826 0.04791181856102476 0.000268696292833725
-0.9992186730436726 0.03952206131718693 0.0002238528129534333
-0.9994804361428495 0.03223078705508044 0.0001847525614121456
-0.9996640809007078 0.02591722615203945 0.000150816203028947
-0.9997904213029687 0.02047190050971336 0.0001214921913266651
-0.9998752335204498 0.01579582622932401 9.626088640500441e-05
-0.9999303787466582 0.01179966479020015 7.463513240233117e-05
-0.9999646934730906 0.008402895539883321 5.615882138970278e-05
-0.999984691728925 0.005533052910236503 4.041409281385164e-05
-0.999995116807013 0.003125001159427181 2.7016318320606e-05
-0.9999993723498903 0.001120292949214138 1.560554182331531e-05
-0.9999998577054325 -0.0005334364326765651 5.889515855439211e-06
-0.9999982271762595 -0.001882986639577087 -2.377619095892405e-06
-0.9999955893217233 -0.002970058709766477 -9.399967368111323e-06
-0.9999926584868645 -0.003831805899139942 -1.53598147027341e-05
-0.9999898691542277 -0.004501241395195753 -2.03669409481614e-05
-0.999987461798194 -0.005007559372523701 -2.440359786434906e-05
-0.9999855462779257 -0.005376474634900283 -2.749069390047677e-05
-0.9999841472490735 -0.005630663015957806 -2.97412828347608e-05
-0.9999832364821761 -0.005790145075083237 -3.121924266158004e-05
-0.9999827569236669 -0.005872379168156524 -3.190998947106282e-05
-0.9999826392634131 -0.005892381153706864 -3.187659726662327e-05
-0.9999828115445611 -0.005863073800862629 -3.132155870026313e-05
-0.9999832050185697 -0.005795580128362701 -3.052481290699902e-05
-0.9999837582175124 -0.005699334747701415 -2.974243794986655e-05
-0.9999844185724394 -0.005582272529315837 -2.90817546392639e-05
-0.9999851430700403 -0.005450947129061324 -2.854097439604614e-05
-0.999985898072921 -0.005310637132638932 -2.808092870155602e-05
-0.9999866571577171 -0.005165727623458872 -2.765239020668174e-05
-0.9999873995575952 -0.005019958593808761 -2.723516731680314e-05
-0.9999881095059213 -0.004876487341208433 -2.679522262721249e-05
-0.9999887755967911 -0.00473793121684351 -2.623384306486647e-05
-0.9999893908140535 -0.004606257825278477 -2.545947493073854e-05
-0.9999899523466594 -0.004482700522157059 -2.453068178188038e-05
-0.9999904607668247 -0.004367816170211301 -2.360628653483902e-05
-0.9999909189585037 -0.004261628768815099 -2.282025036413988e-05
-0.9999913313243821 -0.004163745782775751 -2.229676754502375e-05
-0.9999917034671373 -0.004073390526636428 -2.205696820929298e-05
-0.9999920417045113 -0.003989491940194401 -2.194770191919201e-05
-0.9999923532150889 -0.003910631332495961 -2.176992013666409e-05
-0.9999926470805999 -0.003834752505955945 -2.139982980782528e-05
-0.9999929347743675 -0.003758984797142622 -2.084806890472773e-05
-0.9999932302109368 -0.003679554999467297 -2.018171829087918e-05
-0.9999935494755662 -0.003591744645810046 -1.94334096309e-05
-0.9999939099344026 -0.003489949420543849 -1.863189231300846e-05
-0.9999943294817655 -0.0033675938680446 -1.777227361871948e-05
-0.9999948255203552 -0.0032169317322143 -1.681498590546747e-05
-0.999995413275 -0.00302872581287138 -1.577694055637209e-05
-0.9999961029985244 -0.002791732809320799 -1.468623593846797e-05
-0.9999968941527981 -0.002492288979134954 -1.343137105224681e-05
-0.9999977654698172 -0.002113981345867617 -1.175761601692156e-05
-0.9999986596574705 -0.001637252567386559 -9.343056473980293e-06
-0.9999994603191246 -0.001038906585160818 -5.879362016154513e-06
-0.9999999575395451 -0.0002914092978251173 -1.236436659535893e-06
-0.999999796489541 0.0006379651488046977 4.620062651203892e-06
-0.999998401625117 0.0017879055802144 1.186789484694597e-05
-0.9999948677849402 0.003203743456796897 2.077600294156583e-05
-0.9999878049377132 0.004938520067264656 3.154994479993134e-05
-0.9999751166787828 0.007054364244577586 4.436619160162011e-05
-0.9999536890683423 0.009623729714586212 5.953984517921246e-05
-0.9999189593805627 0.01273061892678263 7.754374886708294e-05
-0.9998643232715493 0.0164719538671269 9.891676367317065e-05
-0.9997803292424685 0.02095895552412205 0.0001242705080829748
-0.999653601476614 0.02631830602135241 0.0001543470160462904
-0.999465423455886 0.03269298411174709 0.0001900158281907936
-0.9991899109118313 0.04024261412560611 0.0002322506052149744
-0.9987917077828226 0.04914310595894594 0.0002821364562805968
-0.9982231642496137 0.05958521773557676 0.0003408561166449665
-0.9974210004391809 0.07177172170312351 0.0004096909471533798
-0.9963025353093515 0.08591285150898971 0.0004899813792237519
-0.9947616764770953 0.1022196997234626 0.0005830959812790381
-0.9926650037796421 0.1208954657905593 0.0006903784808204882
-0.9898484384714842 0.1421246205453074 0.0008130746683830129
-0.986115100865056 0.1660605343329827 0.0009522515130388028
-0.9812349915873344 0.1928125049906249 0.001108694657574161
-0.9749469928488397 0.2224336204566742 0.001282819371672237
-0.9669633778182356 0.2549110659744341 0.001474585407910937
-0.9569766033161334 0.2901602086700074 0.001683451838646898
-0.9446679293058325 0.3280226539072021 0.001908367026046493
-0.9297179041759794 0.3682662155707904 0.002147818379723753
-0.911821012158379 0.4105809078621441 0.002399976159530499
-0.8907129265152167 0.4545584555417539 0.002663275087721867
-0.8662347049331151 0.4996286563154527 0.002939686693189367
-0.8385051826853601 0.544883891865046 0.00325622416174082
-0.8084565012498706 0.5885436111780691 0.003808323554447664
-0.7801118789877303 0.6256140221745418 0.005705394011306416
-0.9260782469420024 0.3773144750067987 -0.003587128541203557
-0.9372445025412665 0.3486726624525499 -0.0003419275124917361
-0.9490425529497075 0.3151477855025057 0.0003255511753120617
-0.9596312415695369 0.2812608863122749 0.000440493521000154
-0.9685749493551917 0.2487214784058469 0.0004400695369029287
-0.9758685245899181 0.2183585442373503 0.0004109418949174779
-0.9816782605677299 0.1905456716869089 0.0003738048960737722
-0.986228517641583 0.1653880247119978 0.0003350706622609395
-0.9897465905968943 0.1428341627276917 0.0002972535994708601
-0.9924380284664422 0.1227464511615453 0.0002614973938447196
-0.9944780227207384 0.1049447958747198 0.0002283511844619155
-0.9960107552783248 0.08923304402773154 0.000198049098135048
-0.9971522681430026 0.07541435550626753 0.0001706482905487892
-0.9979945542393097 0.06329967113029689 0.0001460940708252084
-0.9986097483939252 0.05271200025604276 0.0001242643452295658
-0.9990539355647304 0.04348819159597467 0.0001049968347531184
-0.9993704078910199 0.03547929071766281 8.810168923922739e-05
-0.999592360030839 0.02855010303993275 7.337837704151102e-05
-0.9997450741163311 0.02257837695260386 6.061614559002276e-05
-0.9998476691346334 0.01745382667868016 4.960152200679872e-05
-0.9999144899998383 0.01307712042403442 4.012203884416522e-05
-0.9999562039625602 0.009358906711344877 3.196802123858982e-05
-0.9999806620102411 0.006218921404646169 2.494238569441342e-05
-0.9999935731614544 0.003585147157317978 1.885860357819853e-05
-0.9999990295868288 0.001393069347890377 1.353484595686209e-05
-0.9999999138403978 -0.0004150193626813772 8.838841881225197e-06
-0.9999982127701977 -0.001890617523390037 4.667971298025319e-06
-0.9999952581625606 -0.003079553782466404 9.454595833330247e-07
-0.9999919093019579 -0.004022601755124915 -2.396674126869033e-06
-0.9999886904270577 -0.004755942511183923 -5.367293006229872e-06
-0.9999858936689128 -0.005311534746332455 -7.862796955333715e-06
-0.9999836548993223 -0.005717502736991916 -9.830819587054939e-06
-0.9999820080706643 -0.005998617080482349 -1.131739613296254e-05
-0.9999809238697051 -0.006176709866658676 -1.232533611403097e-05
-0.9999803382715418 -0.006270797935604712 -1.278996510713092e-05
-0.9999801721352809 -0.006297235439908423 -1.27321547517104e-05
-0.9999803427226586 -0.006270089045887741 -1.231384750689386e-05
-0.9999807707477439 -0.006201451126476207 -1.177595965196268e-05
-0.9999813851661586 -0.006101572957406638 -1.13408778570512e-05
-0.9999821251230527 -0.005979072790565945 -1.1088192561706e-05
-0.9999829407256107 -0.005841073263734225 -1.099487818253518e-05
-0.9999837928210924 -0.005693327146087802 -1.10067971505242e-05
-0.9999846506128718 -0.005540615155114836 -1.106142683631881e-05
-0.999985489918421 -0.00538700554943565 -1.112768273171351e-05
-0.9999862923986365 -0.00523592304992196 -1.116438320208658e-05
-0.9999870448063715 -0.005090196158210626 -1.106754447508134e-05
-0.9999877389498163 -0.00495195260619479 -1.074334834910656e-05
-0.9999883714180625 -0.004822543275112264 -1.024745256937357e-05
-0.9999889426539524 -0.00470260301476905 -9.732173757836752e-06
-0.9999894557784423 -0.004592193916720459 -9.325509902402924e-06
-0.9999899156888705 -0.004490928281752986 -9.150578551670419e-06
-0.9999903286839766 -0.004398005599794222 -9.233424199413122e-06
-0.9999907019477098 -0.004312299763281725 -9.427494571769365e-06
-0.9999910437306474 -0.004232300494378454 -9.540192707582878e-06
-0.9999913645032575 -0.004155818745691845 -9.458620872839044e-06
-0.9999916775067487 -0.004079807901118887 -9.204811907105049e-06
-0.9999919988644012 -0.004000266087692921 -8.854779726783083e-06
-0.9999923473483042 -0.003912182683975929 -8.454302850653808e-06
-0.9999927434302154 -0.003809596053976915 -8.050862089959348e-06
-0.9999932084959293 -0.003685499061118768 -7.660718349685991e-06
-0.9999937637842132 -0.003531620004752172 -7.268047972665144e-06
-0.999994428548545 -0.00333808687788852 -6.918426312176249e-06
-0.9999952169707345 -0.003092893640820187 -6.676794288973622e-06
-0.9999961317249572 -0.002781455223884483 -6.477584572142808e-06
-0.9999971528860168 -0.002386248592684808 -6.12489312887933e-06
-0.9999982207508005 -0.001886389784430079 -5.367879149522334e-06
-0.999999209842774 -0.001257099049978136 -3.975619041231259e-06
-0.9999998900368366 -0.0004689591542357629 -1.904196474662386e-06
-0.9999998684238992 0.0005129830204489313 7.774378186698146e-07
-0.9999985034591473 0.001730046956752874 4.122210383058822e-06
-0.9999947813699667 0.003230660105661533 8.253108128589074e-06
-0.9999871398419033 0.005071486604395073 1.320721923701239e-05
-0.9999732164654567 0.007318879157522145 1.896329177752829e-05
-0.9999494951226366 0.0100502014144828 2.560296651314463e-05
-0.9999108156718489 0.0133551335352847 3.332734705160686e-05
-0.9998496998934163 0.0173371228360012 4.236524626319369e-05
-0.9997554355978807 0.0221148408582488 5.297457506423658e-05
-0.9996128519717439 0.02782340531187827 6.549631205681065e-05
-0.9994007095988213 0.03461524515299245 8.035154113877291e-05
-0.9990896247080179 0.04266042888967963 9.801908268859193e-05
-0.9986394538983467 0.0521462073964973 0.0001190452548750899
-0.9979960959520109 0.06327536422775165 0.0001440360703511891
-0.9970877211081678 0.07626300711714784 0.000173668563519888
-0.9958205301124828 0.09133141992362986 0.0002086653462118532
-0.9940742861379201 0.1087025816067181 0.0002497827432605807
-0.991698032355111 0.1285881952199966 0.0002977802290372125
-0.988506606404062 0.1511772609330934 0.0003533727378329599
-0.9842787096377901 0.1766217645661587 0.0004171753862132528
-0.9787573405151807 0.2050215321749905 0.000489624620780448
-0.9716532416410849 0.2364099238016796 0.000570908446993865
-0.9626516217156864 0.2707423469375586 0.0006608955297255838
-0.9514218536024728 0.30788939613346 0.0007591022379256862
-0.9376294284418658 0.3476353077704881 0.000864702895554447
-0.9209497766152608 0.3896800676675354 0.0009766344892910936
-0.9010858321473284 0.4336393968214892 0.001093904772474746
-0.8777979916553729 0.4790294411156052 0.001216712893096032
-0.8509742930921137 0.5252056025868785 0.001351853442806821
-0.8208317830551277 0.5711679244512031 0.001544669752393889
-0.7886012010415616 0.6149014738951201 0.002079210767402307
-0.7594161514419783 0.6505899921790252 0.004446459889630646
-0.900763252324424 0.4342937404511024 -0.003809234426497108
-0.9165553940358387 0.3999073083312514 -0.0005953209733326004
-0.9331122653019134 0.3595851614122805 0.0001097052203729371
-0.9475922687376073 0.3194821180556044 0.0002616704393884145
-0.9595411666475403 0.2815682244057883 0.0002907123121137726
-0.9691217213359097 0.2465826592500289 0.0002852930192232722
-0.9766637321609148 0.214774026801865 0.0002677551571681968
-0.9825217870796781 0.1861474620817945 0.0002455081711847434
-0.9870234339509468 0.1605761242649368 0.0002216928785631295
-0.9904512417350934 0.1378633329946261 0.0001978914448529409
-0.9930396663358271 0.1177802634711545 0.0001749865537686732
-0.9949784802356988 0.1000889619894737 0.0001534787562518365
-0.9964187232012587 0.08455595894928586 0.0001336418330033242
-0.9974791693759885 0.07095980057525811 0.0001155997713387393
-0.9982523718678821 0.05909477290009088 9.937823641893847e-05
-0.9988099211660264 0.04877226840878386 8.493866727002152e-05
-0.9992068345750783 0.03982080519410747 7.219518432970261e-05
-0.9994851327921718 0.0320852863797428 6.103559914769362e-05
-0.9996767081776418 0.02542590200774004 5.132452120040258e-05
-0.999805602218 0.01971689458231381 4.291307707633589e-05
-0.9998898016448632 0.01484531225927957 3.564436129753741e-05
-0.9999426477522553 0.01070982466704227 2.93565950489818e-05
-0.999973937767517 0.007219640904647082 2.389421481801636e-05
-0.9999907826943334 0.004293502216328455 1.91073933481239e-05
-0.9999982723395974 0.001858789215748382 1.484827982661927e-05
-0.999999988793521 -0.0001493037815198577 1.101537672777194e-05
-0.9999984006303905 -0.001788485362014494 7.534612495385371e-06
-0.9999951638939015 -0.003110011228003773 4.355496180815365e-06
-0.9999913497089192 -0.004159387607645401 1.436323457222848e-06
-0.9999876150885582 -0.004976913504759731 -1.209655949015377e-06
-0.9999843303741223 -0.005598124168860805 -3.465229511545371e-06
-0.9999816728632124 -0.006054247265381545 -5.266959895958073e-06
-0.9999796939040395 -0.006372733745578362 -6.647632228821643e-06
-0.9999783665613898 -0.006577716280382995 -7.599268448578679e-06
-0.9999776204400486 -0.006690183418455278 -8.055130008271099e-06
-0.9999773655231937 -0.006728177817359851 -8.034312893985874e-06
-0.9999775064336593 -0.006707202663789048 -7.690750046399868e-06
-0.9999779512007356 -0.006640561704315426 -7.25468765349542e-06
-0.9999786170546495 -0.006539524855114356 -6.938241831893033e-06
-0.9999794328743594 -0.006413562336875666 -6.813591201543877e-06
-0.9999803401407732 -0.006270509147540721 -6.853730379027121e-06
-0.9999812926920186 -0.00611671619138482 -7.002350900837615e-06
-0.9999822541454567 -0.005957461072913604 -7.192768559282864e-06
-0.9999831959436024 -0.005797221386362292 -7.390258741282224e-06
-0.999984096437646 -0.005639753074090237 -7.55297846445439e-06
-0.9999849400005543 -0.005488143096720019 -7.578747356793325e-06
-0.9999857168597938 -0.005344719070566953 -7.379722981529892e-06
-0.9999864226948409 -0.005210986161458197 -7.014249596593979e-06
-0.9999870575956676 -0.005087690755651905 -6.628219740784103e-06
-0.9999876247809575 -0.004974961781836899 -6.340986159387298e-06
-0.9999881295835166 -0.004872438067717159 -6.27186285189078e-06
-0.9999885790024994 -0.004779311973019272 -6.451818847192543e-06
-0.999988981163395 -0.004694412249959599 -6.739594641622786e-06
-0.9999893455594107 -0.004616136851781296 -6.944572217778991e-06
-0.9999896843086987 -0.004542161130841159 -6.960627073530582e-06
-0.9999900127776358 -0.004469261520968044 -6.814743893875507e-06
-0.999990349803566 -0.004393205713653681 -6.580155303410185e-06
-0.9999907175553372 -0.00430868465235618 -6.303015529233205e-06
-0.9999911405658501 -0.004209364960334932 -6.036571974877457e-06
-0.999991644960647 -0.004087783656658486 -5.803065123583255e-06
-0.9999922574268109 -0.003935105483581582 -5.591401292016782e-06
-0.9999930032715417 -0.003740772408895658 -5.454088894950443e-06
-0.9999939030767133 -0.00349195926881334 -5.464901758791409e-06
-0.9999949657098155 -0.003173093759708719 -5.569285801122172e-06
-0.9999961760861932 -0.002765462302319248 -5.589769364793792e-06
-0.9999974760239262 -0.002246757153233863 -5.298200606825558e-06
-0.9999987351506557 -0.001590495834433279 -4.482052045104994e-06
-0.9999997072020146 -0.0007652360404054768 -3.112400815844864e-06
-0.9999999645239137 0.0002663654226080949 -1.27766788081984e-06
-0.9999988011532576 0.001548447917648003 1.045616454336616e-06
-0.9999950928842612 0.003132761055950491 3.945048850378174e-06
-0.9999870974219981 0.00507985575457382 7.418866540828527e-06
-0.9999721692058223 0.007460608810824545 1.140061327683277e-05
-0.9999463580992689 0.01035763828096925 1.591379149756396e-05
-0.9999038524661433 0.01386670034819681 2.109071629330854e-05
-0.9998362132472624 0.01809823045935675 2.708531709189588e-05
-0.9997313328741387 0.02317888929145777 3.407216142210499e-05
-0.9995720424825369 0.02925286478368616 4.229936910232176e-05
-0.9993342799691267 0.03648279273114 5.208765127579473e-05
-0.9989847270040902 0.0450500959026617 6.381005935263396e-05
-0.998477830972055 0.05515446481009835 7.790283379001315e-05
-0.9977521628977858 0.06701203201091606 9.486072993347103e-05
-0.9967261260461446 0.08085181738204356 0.0001152521812170394
-0.9952931401507151 0.09690998737690251 0.0001396980206637336
-0.9933165963360508 0.1154214491687233 0.0001688643086545493
-0.9906250896146951 0.1366085298952797 0.0002034348230633732
-0.9870086881120489 0.1606667047752378 0.0002440655610816202
-0.9822172006337359 0.1877479318325724 0.000291327682746333
-0.9759614962150976 0.2179427412183787 0.0003456237928164444
-0.9679187646247545 0.2512630083196356 0.0004071086530567868
-0.9577421397487673 0.2876278281854803 0.0004756077755992711
-0.9450743865330756 0.3268548619573467 0.0005505760384371744
-0.9295647416146666 0.3686583687435561 0.0006311118742394482
-0.9108882853510464 0.4126524188957365 0.0007160933790602048
-0.8887699978840441 0.4583527500711209 0.0008045889861303204
-0.863024430325389 0.5051613876120966 0.0008972888933785222
-0.8336468141808182 0.5522970064428162 0.001002935928082312
-0.8010673658124661 0.598573051467977 0.001173663746902142
-0.7669459834517416 0.6417093777688745 0.001712585975829945
-0.7370435624301195 0.6758326904514032 0.004118446009836082
-0.8718486612598925 0.4897605660864431 -0.003807855829670147
-0.8920647794380794 0.45190700602101 -0.0006979937086692137
-0.9136365503321677 0.4065319837946483 7.008838674416183e-06
-0.9325747181963442 0.3609769560858163 0.0001793210172512583
-0.9481503649209209 0.3178220154014649 0.0002280931279393488
-0.9605702256216402 0.2780373803379579 0.0002382939284156363
-0.9702939369984117 0.2419289601276124 0.0002325418111057007
-0.9778102911394113 0.2094922111559049 0.0002191046982127891
-0.9835626125013025 0.1805672908627599 0.0002018912966572891
-0.987927409513407 0.1549173974024287 0.0001830688029924023
-0.9912133840816422 0.1322724473900228 0.0001639477735145792
-0.9936681779310066 0.1123544883110509 0.0001453397221424081
-0.995487526788615 0.09489240059024598 0.0001277439089742626
-0.9968244870517243 0.07962995412041803 0.0001114488526961455
-0.9977977526085551 0.06632974866308146 9.66002543681133e-05
-0.9984987410690757 0.05477460317757272 8.324788248468413e-05
-0.9989974317045144 0.04476746981870157 7.137096983782064e-05
-0.9993470780258347 0.03613051247572005 6.090540296512629e-05
-0.9995879601205785 0.02870378553031307 5.175142491892299e-05
-0.9997503460357732 0.02234376163744721 4.378630027898834e-05
-0.9998568146008974 0.01692184790651509 3.68724152615598e-05
-0.9999240687729478 0.01232297594255731 3.086214208064079e-05
-0.9999643458522324 0.008444309825325369 2.56103559490381e-05
-0.9999865106216114 0.005194048018632045 2.097601525746447e-05
-0.9999968989125572 0.002490357877178221 1.681998895823499e-05
-0.9999999660117227 0.0002603964029931344 1.304860509094438e-05
-0.9999987822995898 -0.001560547101854903 9.595827045659072e-06
-0.9999954100650403 -0.003029819736489915 6.419969359938058e-06
-0.9999911874567416 -0.004198213509464365 3.490646419042574e-06
-0.9999869407762901 -0.005110604288034552 8.2876614327425e-07
-0.9999831422231397 -0.005806484946974601 -1.447979000025855e-06
-0.9999800254323724 -0.006320500419041739 -3.274789727854934e-06
-0.9999776682552405 -0.006683035905257232 -4.679835183613271e-06
-0.9999760514487561 -0.006920729511180568 -5.655715039347338e-06
-0.9999751010982445 -0.007056709275590568 -6.144515200422946e-06
-0.9999747176200218 -0.007110842613472559 -6.171232619455142e-06
-0.9999747934110337 -0.007100176609483655 -5.888482247114322e-06
-0.9999752237142074 -0.007039312980036557 -5.521713707964832e-06
-0.9999759136535948 -0.006940611270594573 -5.277183899173833e-06
-0.9999767813381498 -0.00681445209139772 -5.223766396330742e-06
-0.9999777590638186 -0.006669433952407963 -5.334565981760241e-06
-0.9999787931082281 -0.006512549651982977 -5.553491466836625e-06
-0.9999798410233915 -0.006349607315134551 -5.811680633054635e-06
-0.999980869467102 -0.006185520426866777 -6.071833004109026e-06
-0.9999818531330621 -0.006024397479859557 -6.290544686530824e-06
-0.9999827737200121 -0.005869601577522033 -6.368054595342451e-06
-0.9999836196018287 -0.005723677949105843 -6.225726476750831e-06
-0.9999843852844887 -0.005588304937454549 -5.926936832675298e-06
-0.9999850702607169 -0.00546435944726711 -5.612461823401767e-06
-0.9999856776283196 -0.005352056536028507 -5.391209156090675e-06
-0.9999862129660296 -0.005251080741656095 -5.376093273857263e-06
-0.9999866838005267 -0.005160638548827275 -5.603008239062448e-06
-0.9999870990586118 -0.005079535520318662 -5.936316982426786e-06
-0.9999874693912573 -0.005006098500002183 -6.186861166468425e-06
-0.9999878085233993 -0.004937890788345898 -6.255493091490571e-06
-0.9999881339510858 -0.004871541740183389 -6.17243033761992e-06
-0.9999884673146003 -0.004802624462480803 -6.005711694252726e-06
-0.9999888343990356 -0.004725573365800145 -5.798454388410784e-06
-0.9999892642003919 -0.004633729871910391 -5.606461251604803e-06
-0.9999897882228479 -0.004519227839389365 -5.455190894425881e-06
-0.9999904395708948 -0.004372726648420642 -5.335352838720208e-06
-0.9999912509986194 -0.004183048899610823 -5.302766751311349e-06
-0.9999922514208857 -0.003936631637661665 -5.434853729788889e-06
-0.9999934585654821 -0.003617014511611071 -5.680479293613096e-06
-0.9999948658348907 -0.003204414045824975 -5.872091516974957e-06
-0.9999964215123099 -0.002675243729077103 -5.793442099317803e-06
-0.9999979970026011 -0.002001490278410077 -5.239383144973608e-06
-0.9999993388644429 -0.001149892686984188 -4.181520755600461e-06
-0.9999999967186048 -8.096571261217812e-05 -2.709818310609131e-06
-0.9999992163083783 0.001251951265611927 -8.10898654246627e-07
-0.9999957846166377 0.002903574767770438 1.588235289736663e-06
-0.9999878083811981 0.004937921523386272 4.471824298073584e-06
-0.9999723979284427 0.007429893745223438 7.75721625378194e-06
-0.9999452217413366 0.0104667753263149 1.144276839640413e-05
-0.999899887676742 0.01414971306186416 1.563025982533606e-05
-0.9998270914260319 0.01859534438099046 2.044292608586418e-05
-0.9997134583254899 0.02393743022405749 2.602224005685986e-05
-0.9995399923840828 0.03032824695278134 3.258217776214473e-05
-0.9992800339099726 0.0379395861335983 4.040909293909352e-05
-0.9988966215602383 0.04696314460343004 4.984475060800951e-05
-0.9983391624952143 0.05761000669120938 6.129757645450831e-05
-0.9975393526352536 0.07010873185828237 7.524136173009504e-05
-0.996406360571217 0.08470157086152828 9.223237466670197e-05
-0.9948214157827808 0.1016382701319907 0.0001128916288011175
-0.9926321405226138 0.1211668873294475 0.0001378999143563148
-0.989647222061238 0.1435212446019341 0.0001679713852158124
-0.9856323364799526 0.1689048718887508 0.0002038070496340202
-0.9803085118850206 0.197471924570895 0.0002460326051274923
-0.9733542784701832 0.2293062613553086 0.00029510513305923
-0.9644128182446831 0.2644008181736267 0.0003512185417998592
-0.9531048129405569 0.302640122892675 0.0004142041187839233
-0.9390468263320875 0.3437889239215037 0.0004834713315244129
-0.9218742605884706 0.3874887563341159 0.0005580135304296295
-0.901268165641115 0.4332612242043932 0.0006365554254539296
-0.8769883886171287 0.4805110307571754 0.0007180190862538083
-0.8489256515910982 0.5285116773533031 0.0008031013803437746
-0.8172119009413941 0.5763366178957152 0.000901017358844577
-0.7825014214632066 0.6226478869938999 0.001065002390588577
-0.7467690042835923 0.6650815802691372 0.00159556510325318
-0.7160278426401173 0.6980605261783102 0.003953524478194512
-0.8413521699396205 0.5404741990014159 -0.003763821418416399
-0.8655537620259963 0.5008154151044791 -0.0007778408401150151
-0.8919225839328887 0.4521881210361258 -8.639615995200699e-05
-0.9154197074924496 0.4025006200973527 9.977817407217846e-05
-0.9349098634748759 0.3548852201442377 0.0001664348647663225
-0.9505134054986177 0.3106834867081161 0.0001924949547288432
-0.9627459534639207 0.270407450611021 0.0001993561994482902
-0.9722003625883863 0.2341504148286411 0.0001954957422807026
-0.9794292888021295 0.2017875959217471 0.0001853879068734442
-0.984907287165131 0.1730826570836044 0.0001717728192387672
-0.9890250888361727 0.1477475860336315 0.0001564411544363802
-0.9920964777750634 0.1254773247394126 0.0001405793454475118
-0.9943693433082655 0.1059697762173101 0.000124968561370513
-0.9960372530667447 0.08893693484665682 0.0001101060165944603
-0.9972500250322947 0.07411058157514834 9.628956704237916e-05
-0.9981227822588445 0.06124462861015881 8.367954481398005e-05
-0.9987434265234586 0.05011549404970566 7.233487613152306e-05
-0.9991786712003878 0.04052134182582402 6.224838557678844e-05
-0.9994788396581168 0.03228074082612118 5.336085749598599e-05
-0.9996816447737137 0.02523107261275372 4.557776088357138e-05
-0.9998151458069189 0.01922687470974703 3.878124675288409e-05
-0.999900049612499 0.01413823562637565 3.283740286493229e-05
-0.9999514940486747 0.009849303908039078 2.761068399733861e-05
-0.9999804251594111 0.006256897832298307 2.296778142100653e-05
-0.999994655781001 0.003269259375613981 1.877690283862421e-05
-0.9999996759479955 0.0008049101659155891 1.495085132463459e-05
-0.9999992698693166 -0.00120835846957663 1.142988257078824e-05
-0.9999959830710493 -0.002834391447487795 8.178513780528239e-06
-0.9999914731673085 -0.004129596336154715 5.174565917963207e-06
-0.9999867711342576 -0.005143690358403376 2.445031791042931e-06
-0.9999824746819056 -0.005920331835293407 1.070919427284411e-07
-0.9999788894354514 -0.006497744246284499 -1.774917896028582e-06
-0.9999761299869855 -0.006909373765961443 -3.226937361435246e-06
-0.9999741914174499 -0.007184461081016437 -4.241674247121581e-06
-0.9999730005353261 -0.007348345231498749 -4.768099772032468e-06
-0.9999724508437356 -0.007422771056349822 -4.839124610441038e-06
-0.9999724241193131 -0.007426370560225317 -4.609384717906902e-06
-0.9999728037592703 -0.007375074462166275 -4.301236572273203e-06
-0.999973483301882 -0.007282353751138406 -4.11622515946604e-06
-0.9999743703316688 -0.007159515542438341 -4.120675962638799e-06
-0.9999753880252399 -0.007015933679122565 -4.287273907613587e-06
-0.9999764750393986 -0.006859252654194475 -4.561179148354226e-06
-0.9999775827286486 -0.006695820817172601 -4.873665439042851e-06
-0.9999786728115158 -0.006530994965596098 -5.184429939144094e-06
-0.999979716152934 -0.006369242736124407 -5.446632359351172e-06
-0.9999806915926526 -0.006214210404420006 -5.561413908004226e-06
-0.9999815854446218 -0.006068668871595293 -5.457726863692448e-06
-0.9999823908060365 -0.005934479820100506 -5.206496561913215e-06
-0.9999831063176273 -0.005812663320565817 -4.946742138491483e-06
-0.9999837347046757 -0.005703534277639594 -4.778318223817652e-06
-0.999984281541472 -0.005606839294949728 -4.80687055746663e-06
-0.9999847546271136 -0.005521819233295385 -5.070069755758156e-06
-0.9999851634448513 -0.005447280112370096 -5.436033728065479e-06
-0.9999855195831875 -0.005381504552677881 -5.717675191805482e-06
-0.9999858381728575 -0.005321975181367106 -5.822038924723803e-06
-0.9999861386676989 -0.00526521025307073 -5.784118984548127e-06
-0.9999864453858786 -0.005206631577767106 -5.66818251158345e-06
-0.9999867876835575 -0.005140469620238456 -5.513876245344116e-06
-0.9999871990962396 -0.005059803823947784 -5.377782705370573e-06
-0.9999877167683284 -0.00495643869308723 -5.286453872962395e-06
-0.999988380745362 -0.00482061685839349 -5.231977738691758e-06
-0.9999892321297061 -0.004640646164131102 -5.274409500542553e-06
-0.9999903096076771 -0.004402347165405475 -5.49338064517168e-06
-0.9999916419549344 -0.004088518823029573 -5.840179765293699e-06
-0.9999932343181875 -0.003678488817218607 -6.153992502236329e-06
-0.9999950462456195 -0.00314760948178643 -6.226632504973841e-06
-0.9999969579192454 -0.002466600480245539 -5.858768252377847e-06
-0.9999987188696334 -0.001600697928032464 -5.023374089663247e-06