# OOMMF: rectangular mesh v1.0
# Segment count: 1
# Begin: Segment
# Begin: Header
# Title: 
# Desc: time = 2.3320610674114626e-10
# Desc: stepsize = 3.623197390837104e-13
# Desc: step = 540
# meshunit: m
# valueunit: (none)
# valuemultiplier: 800000.0000000002
# xmin: 0
# ymin: 0
# zmin: 0
# xmax: 4e-07
# ymax: 1e-07
# zmax: 4e-09
# ValueRangeMaxMag: 1
# ValueRangeMinMag: 0.9999999999999996
# meshtype: rectangular
# xbase: 2e-09
# ybase: 2e-09
# zbase: 1e-09
# xstepsize: 4e-09
# ystepsize: 4e-09
# zstepsize: 2e-09
# xnodes: 100
# ynodes: 25
# znodes: 2
# End: Header
# Begin: Data Text
-0.9439521634081016 0.3300741135167483 -0.002322236701240319
-0.9508160062744733 0.3097555929658223 0.0006283618800291131
-0.959136750886585 0.2829405790562455 0.001149705197489818
-0.9671828904969856 0.2540785185947005 0.001167355394889726
-0.974238732703731 0.2255165618592067 0.001082601972285333
-0.9801083880344562 0.198460564322105 0.0009757630095429698
-0.9848377762354569 0.1734756543682318 0.0008670877197557552
-0.988568747873023 0.1507688568829251 0.0007632319300619587
-0.9914678085787496 0.1303500673356256 0.0006667065691391145
-0.9936940068624422 0.1121244228438351 0.0005783836109594754
-0.9953864814194834 0.09594531863561943 0.0004984368058232418
-0.9966613958856226 0.08164484010041963 0.0004266571205553086
-0.9976130754852819 0.06905085176347829 0.0003626176151771653
-0.9983167569654436 0.05799620004575223 0.0003058467783777969
-0.9988317061047076 0.04832346693345552 0.0002557801589255771
-0.9992041723718929 0.03988705362427143 0.000211820147431684
-0.9994699727592187 0.03255370131993946 0.0001734446835081423
-0.99965665296346 0.02620222416125798 0.0001401245713677939
-0.9997852529550428 0.02072282734551808 0.0001113572103152886
-0.9998717278409891 0.01601625246275053 8.672556723116976e-05
-0.9999280812832205 0.011992828447139 6.578065445887003e-05
-0.999963261247285 0.008571688640837656 4.8057658616434e-05
-0.9999838679315007 0.005680033464104628 3.311496592010707e-05
-0.9999947108235141 0.003252368988068709 2.051734169768614e-05
-0.9999992435973397 0.001229921550463354 9.885727790846179e-06
-0.9999999032315624 -0.0004399272906040259 9.187759889291064e-07
-0.9999983722551644 -0.001804284859615942 -6.570144956424395e-06
-0.9999957798556846 -0.002905186483020563 -1.274048233842431e-05
-0.9999928555699991 -0.003780012375525753 -1.775947994006796e-05
-0.9999900454724554 -0.004461892260042147 -2.175903993339833e-05
-0.9999875991386035 -0.004980055200052944 -2.488404112931513e-05
-0.9999856336909312 -0.005360192848585311 -2.728319630108855e-05
-0.9999841803899753 -0.00562477793293217 -2.903435823450625e-05
-0.9999832170579654 -0.005793504179069459 -3.01948448848863e-05
-0.9999826911784202 -0.0058835698017349 -3.082128808765135e-05
-0.9999825359430699 -0.005909894018845527 -3.100890844995282e-05
-0.9999826805102898 -0.005885382333296438 -3.089087292597038e-05
-0.9999830565845426 -0.005821134606882713 -3.058960649699521e-05
-0.9999836021505318 -0.005726649737257104 -3.021313470103155e-05
-0.9999842633193895 -0.005610011269203306 -2.978484104221748e-05
-0.9999849947263705 -0.005478089238762844 -2.933244494676368e-05
-0.9999857591293252 -0.005336731538650393 -2.889690051483502e-05
-0.9999865272359023 -0.005190812410213875 -2.851668585081142e-05
-0.999987277285901 -0.005044251161286474 -2.822325778804069e-05
-0.9999879938177371 -0.004900146563972415 -2.800051817451741e-05
-0.9999886663566728 -0.004760922533829642 -2.783575617854437e-05
-0.9999892882988571 -0.004628447026061058 -2.767076949444935e-05
-0.9999898564650279 -0.004504021919107454 -2.745186245188416e-05
-0.999990370590256 -0.004388392562350602 -2.71566040237994e-05
-0.9999908328437148 -0.004281764962437945 -2.678319547580171e-05
-0.9999912473345988 -0.004183845185534362 -2.633735720663948e-05
-0.9999916194466861 -0.00409394325655831 -2.578770059490693e-05
-0.9999919559864453 -0.004010901587491115 -2.511688687210181e-05
-0.9999922653505086 -0.003933020254203793 -2.430715892796008e-05
-0.9999925577588095 -0.003857963173690475 -2.339111187413255e-05
-0.9999928452387274 -0.003782719761747117 -2.241780551325552e-05
-0.9999931414597252 -0.003703589548282203 -2.140017204503216e-05
-0.9999934618698408 -0.00361604808595315 -2.03423490173529e-05
-0.9999938236849845 -0.003514572819285054 -1.922971109421564e-05
-0.9999942457018122 -0.00339237915890233 -1.808052800377644e-05
-0.9999947468866885 -0.003241282850480653 -1.686743535012884e-05
-0.9999953438989875 -0.003051546930118088 -1.554601247493737e-05
-0.9999960474670641 -0.002811556849385738 -1.408302615335265e-05
-0.9999968562001839 -0.002507475935411103 -1.241699070819428e-05
-0.9999977467397125 -0.002122829833565009 -1.044006799396946e-05
-0.9999986584139025 -0.001638019348874295 -7.937722354256802e-06
-0.9999994697760475 -0.001029769471100839 -4.739214806510523e-06
-0.9999999634141058 -0.0002705018975295461 -7.141699235808674e-07
-0.9999997739792336 0.0006723265354752232 4.302419627348118e-06
-0.9999983124252468 0.001837127089026727 1.052219738877169e-05
-0.9999946560444951 0.003269181949464421 1.821627495900918e-05
-0.9999873909964885 0.005021661364678107 2.766178522407441e-05
-0.9999743884377289 0.007156880015667753 3.920498548121812e-05
-0.9999524903178579 0.00974752654153525 5.323002709057723e-05
-0.99991707330969 0.01287794979957538 7.009096258842401e-05
-0.9998614508519386 0.0166454484296315 9.025980409778895e-05
-0.9997760617965183 0.02116159679247051 0.0001143671133726156
-0.9996473843322879 0.02655346509606506 0.0001431398146806363
-0.9994565131222009 0.03296432742579092 0.0001774682409699882
-0.9991773222636638 0.04055405016102596 0.0002183793738227092
-0.9987741517469241 0.04949871224849867 0.0002669980377007652
-0.9981989889877387 0.05998894141541424 0.000324486846875707
-0.9973881368974686 0.07222707687347558 0.0003921001266850068
-0.9962584531263241 0.08642263902811778 0.0004712088273881863
-0.994703371254437 0.1027856316953779 0.0005631447765144607
-0.992589021634391 0.1215178432627558 0.0006692530539070483
-0.9897509492882385 0.1428020761796877 0.0007908361402787897
-0.9859920375919287 0.1667898047102883 0.00092889720624009
-0.9810822678669653 0.1935882440848913 0.001084172098894716
-0.9747607921149393 0.2232483324740895 0.001257061253087616
-0.9667404803650915 0.2557552512899328 0.001447432587312544
-0.9567147372070119 0.2910226339117498 0.001654739249869115
-0.9443660616026325 0.3288908859120351 0.001877992845847518
-0.9293763869089153 0.3691274241236878 0.002115706959971735
-0.9114416089675752 0.4114226475222513 0.002366125182361581
-0.8902986622156787 0.455369506188426 0.002627715867723307
-0.8657895788341815 0.5003998216885657 0.002902350113600204
-0.8380339484337374 0.5456086079357396 0.003216864775495324
-0.8079644959284378 0.5892191345432766 0.00376627231850665
-0.7796049906017376 0.6262459870244441 0.005658830678136568
-0.9251562426818215 0.379568668009925 -0.003681425270886884
-0.936469470066027 0.3507488410744035 -0.0004267542816423502
-0.948421377619195 0.3170123442637411 0.0002530994172099687
-0.9591436193743811 0.2829193765149621 0.0003792173477024149
-0.9681963782018423 0.2501911719734355 0.0003882053494754116
-0.9755765349007984 0.2196594863058801 0.0003669152320068691
-0.9814540020269454 0.1916974929808434 0.0003362887920408847
-0.9860568212450652 0.1664086941565223 0.0003029607203205924
-0.9896155041950512 0.143739629789521 0.0002696010868878639
-0.9923382358141788 0.123550675242045 0.0002374624969103851
-0.9944023131214386 0.1056598159799989 0.000207233695991713
-0.9959535637281224 0.08986916465922662 0.0001792782905667553
-0.9971093021494417 0.07598036541847868 0.0001537463099038121
-0.9979625023432838 0.06380303150939638 0.0001307170297372641
-0.9985860500424756 0.05315908699866913 0.0001101364332555245
-0.9990366041075261 0.04388456691241416 9.187062404904753e-05
-0.9993578996851858 0.03582991193054352 7.581466141858581e-05
-0.9995834762536197 0.02885949028347403 6.181672398960479e-05
-0.9997388872032351 0.02285070987656899 4.971693400366409e-05
-0.9998434661338129 0.01769298383322232 3.940304102419253e-05
-0.9999117284696308 0.01328662209448955 3.069516351531297e-05
-0.9999544747544753 0.00954190087052402 2.337259194090615e-05
-0.9999796589637039 0.006378194295247056 1.72152854939056e-05
-0.9999930691761715 0.003723097625110031 1.198726758140898e-05
-0.999998857291459 0.001511740605448072 7.491188618353842e-06
-0.9999999507371869 -0.0003138674176067447 3.587133863811722e-06
-0.9999983699772157 -0.001805558877180482 2.296007069899308e-07
-0.9999954713988214 -0.003009514084128688 -2.612613167540841e-06
-0.9999921324216802 -0.003966745497445782 -4.989924387129283e-06
-0.9999888910898594 -0.004713560100269478 -6.932124666925249e-06
-0.9999860503556081 -0.005281952479416285 -8.496825429888309e-06
-0.9999837547329797 -0.005700015347425453 -9.755519199042594e-06
-0.9999820459265322 -0.005992304209599183 -1.071663459199648e-05
-0.9999809016070883 -0.006180314844413319 -1.137972475486442e-05
-0.9999802629564837 -0.006282798688010068 -1.175275387601957e-05
-0.999980053748222 -0.006316008583749271 -1.188580103409751e-05
-0.9999801925523265 -0.00629399412709276 -1.187179645090256e-05
-0.9999806005610536 -0.00622883314483406 -1.179863462540055e-05
-0.9999812060683976 -0.006130854103176804 -1.174554129933105e-05
-0.9999819466790831 -0.006008841716820411 -1.171040449441303e-05
-0.9999827698291291 -0.005870256213807704 -1.169816815541378e-05
-0.9999836323651354 -0.00572143899677259 -1.173180025585336e-05
-0.9999845003130083 -0.005567673993763313 -1.183392559110238e-05
-0.9999853483654821 -0.005413216217993848 -1.202256955473792e-05
-0.9999861584716321 -0.005261436548014331 -1.227186382200847e-05
-0.9999869183506404 -0.005114975049712344 -1.256303355047204e-05
-0.9999876202175113 -0.004975866454657297 -1.283523582213805e-05
-0.999988260240086 -0.004845535279608361 -1.303302309658359e-05
-0.9999888379461449 -0.004724808003313165 -1.313201894495316e-05
-0.9999893556575249 -0.00461393533560485 -1.312883413079918e-05
-0.999989817933349 -0.004512633359569851 -1.303031387592496e-05
-0.9999902308388268 -0.004420188099820727 -1.280907155655157e-05
-0.999990602104982 -0.004335383101798948 -1.245293965334389e-05
-0.999990941328159 -0.00425642089403923 -1.194967057230598e-05
-0.9999912602431056 -0.004180826338315011 -1.133729968157087e-05
-0.9999915727370365 -0.004105403878605998 -1.067247444409458e-05
-0.9999918947030144 -0.004026217663677613 -9.979947680136954e-06
-0.9999922442382095 -0.003938448591702635 -9.280022426386473e-06
-0.9999926416851289 -0.003836209333475233 -8.575936074272525e-06
-0.9999931094701062 -0.003712270168567847 -7.905897419520601e-06
-0.9999936706031692 -0.003557906795813031 -7.268603025180202e-06
-0.9999943459832102 -0.003362730640272655 -6.652225901035112e-06
-0.9999951504020638 -0.003114343526361757 -6.062437240106004e-06
-0.9999960856585238 -0.002797970258058572 -5.48312929749302e-06
-0.9999971295367949 -0.002396016389803546 -4.86106534638993e-06
-0.9999982185742037 -0.001887546567256942 -4.046620990738799e-06
-0.9999992216235564 -0.001247695321300076 -2.943770482077811e-06
-0.9999999000952291 -0.000446998038275497 -1.511654400329657e-06
-0.9999998491257032 0.0005493163714081016 3.079417418230372e-07
-0.999998411728576 0.00178228324215528 2.601921952820212e-06
-0.9999945540692042 0.003300272978164094 5.495671640229838e-06
-0.9999866866663825 0.00516007822599352 9.093495440589429e-06
-0.9999724101354788 0.007428242360660909 1.35378430861685e-05
-0.9999481581202662 0.01018237259351736 1.898033850441627e-05
-0.9999087015042505 0.01351251292137091 2.550751013926425e-05
-0.9998464684357988 0.0175225126346869 3.327803983114602e-05
-0.9997506218406246 0.02233141996071884 4.25655020202745e-05
-0.9996058246850759 0.02807476397248822 5.369877087358452e-05
-0.9993906222380728 0.03490529583339754 6.712212748229711e-05
-0.9990753551911559 0.04299334483051086 8.336636292782426e-05
-0.9986195339563414 0.05252633423270882 0.0001030188956585558
-0.9979686437064904 0.06370690804706966 0.0001266716604766079
-0.9970503788754801 0.07674970987928759 0.0001549764714374556
-0.9957704151997455 0.09187624616962335 0.0001886867896377964
-0.9940079777229313 0.109307309901049 0.0002285286941184727
-0.9916116023600556 0.1292530629903144 0.0002752681316160274
-0.9883957094017629 0.1519006680304234 0.0003296787783071581
-0.9841387523778767 0.1774000060700877 0.0003923193195887515
-0.9785837441014809 0.2058485872428887 0.0004635843329538362
-0.9714417895812838 0.2372773775511169 0.0005436520733344302
-0.9623988554031498 0.271639546656519 0.0006323060551503371
-0.9511254893707578 0.308803775780346 0.0007290631234532125
-0.9372886958798629 0.3485530180789796 0.0008331649656032771
-0.9205655744754625 0.3905869080712464 0.0009435751189300044
-0.9006607092996156 0.4345217652341257 0.001059368553494468
-0.8773358740245822 0.4798753691805142 0.001180763899769681
-0.8504799690585356 0.5260057932410132 0.001314422719187833
-0.8203102893276557 0.5719167447037379 0.001505440353057902
-0.788057026807726 0.615598872587423 0.002037294298841755
-0.7588531416942872 0.6512469215943695 0.004399597091457268
-0.8996805294188122 0.4365314927308064 -0.003898825323029413
-0.9156339144719728 0.40201253156384 -0.0006775945424205669
-0.9323663498901652 0.3615148518479778 3.854639135757695e-05
-0.9470023623693911 0.3212265326811534 0.0002009189779670335
-0.9590805898961168 0.2831331224330629 0.0002388845339128601
-0.9687649621544153 0.2479806242900482 0.0002409951696357849
-0.9763888744864381 0.2160201679961258 0.0002297782230200496
-0.9823108973256686 0.1872571913232542 0.0002128214404962611
-0.9868622008007636 0.1615641025416043 0.0001933923456531803
-0.9903284018529901 0.1387430232426598 0.0001731611655065975
-0.9929464377708892 0.1185636886526473 0.0001531377787621967
-0.9949080488995492 0.1007866870800151 0.0001339489722266665
-0.9963658142935847 0.08517717217531355 0.0001159624864218176
-0.9974397042070731 0.0715124225820164 9.943720098047409e-05
-0.9982231926734836 0.05958565660899717 8.447029894091106e-05
-0.9987885775169344 0.04920744225262214 7.10538750127221e-05
-0.9991914232161013 0.04020567458139824 5.918476570633077e-05
-0.9994741766376174 0.03242480305945537 4.879663886580216e-05
-0.9996690655343923 0.02572465411168646 3.980487963450791e-05
-0.9998003965301678 0.0199791407225782 3.215752526761844e-05
-0.9998863665347186 0.01507492475513739 2.572207001052338e-05
-0.9999404810143259 0.01091027111654758 2.032243686840504e-05
-0.999972663947852 0.007393991349364641 1.577852016964413e-05
-0.99999012351941 0.004444403480470543 1.188853091516257e-05
-0.9999980229004791 0.001988497678247973 8.492107216877984e-06
-0.9999999992302331 -3.885180368894908e-05 5.4837178686796e-06
-0.9999985622625459 -0.001695719538006919 2.844183424146721e-06
-0.9999953982291711 -0.003033730402972483 5.685916483663811e-07
-0.9999916005335668 -0.004098641293055637 -1.365895168820965e-06
-0.9999878430900327 -0.004930888697010871 -2.966676123315661e-06
-0.9999845094464984 -0.005566044265136982 -4.275968173036418e-06
-0.9999817874453832 -0.006035291947882735 -5.351599596714159e-06
-0.9999797377074382 -0.006365857072249626 -6.18854970502829e-06
-0.9999783414510844 -0.006581533466898984 -6.77951777809225e-06
-0.9999775343318003 -0.00670304265772511 -7.128901966622799e-06
-0.9999772297934411 -0.00674832139533354 -7.278746524019718e-06
-0.999977334018365 -0.006732859424970311 -7.313429263596384e-06
-0.9999777555261218 -0.006669962476367064 -7.314571467467748e-06
-0.9999784107414474 -0.006570996642472627 -7.357525381034401e-06
-0.9999792267460416 -0.006445620303699285 -7.435652955509921e-06
-0.9999801420071454 -0.006302026213222491 -7.548288485391493e-06
-0.9999811059705879 -0.006147165388587892 -7.715227209773814e-06
-0.9999820787595955 -0.005986826903316702 -7.954100086519986e-06
-0.9999830305398645 -0.005825681401995167 -8.277104430667195e-06
-0.9999839398971372 -0.005667439712180173 -8.654877922060681e-06
-0.9999847921516447 -0.005515014342480499 -9.068301114667804e-06
-0.9999855778974668 -0.005370652436452228 -9.459163253011673e-06
-0.9999862923319858 -0.005235938559917224 -9.773654320385122e-06
-0.9999869345569371 -0.005111811389859166 -9.986686292302033e-06
-0.9999875069020213 -0.004998593603898101 -1.0092707393935e-05
-0.9999880143050753 -0.004896033517229228 -1.009902801093589e-05
-0.9999884635162724 -0.00480340865810722 -9.981379060845421e-06
-0.9999888632714596 -0.004719453186188697 -9.730207785808851e-06
-0.9999892245322668 -0.004642276620890296 -9.334363710350294e-06
-0.9999895608098412 -0.004569266172686599 -8.830816098554842e-06
-0.999989888235202 -0.004497038897878812 -8.276424405983478e-06
-0.9999902254614714 -0.00442141631466509 -7.699832667341583e-06
-0.9999905939703307 -0.004337271037612003 -7.128178158686906e-06
-0.9999910182130655 -0.004238331044162495 -6.569326687492983e-06
-0.9999915255269934 -0.004116896577487663 -6.06355123436612e-06
-0.9999921446109016 -0.003963670641512603 -5.615588497108006e-06
-0.9999929026713403 -0.0037675694641566 -5.222985576724943e-06
-0.9999938211091791 -0.003515354808810935 -4.902111128850832e-06
-0.9999949079610808 -0.003191242753482603 -4.647305507257335e-06
-0.9999961456896748 -0.002776434092582544 -4.418570003642919e-06
-0.9999974719871353 -0.002248555684979519 -4.082859179261699e-06
-0.999998750164394 -0.00158103035258066 -3.559985657267168e-06
-0.9999997244439764 -0.000742363768327286 -2.829587580147939e-06
-0.9999999536043958 0.0003046108108957094 -1.860018689794226e-06
-0.9999987139987884 0.001603745745224735 -5.946476433472302e-07
-0.999994858449092 0.003206723290267307 1.058263349907684e-06
-0.9999866136409041 0.005174217718699679 3.161644125387345e-06
-0.9999712918523788 0.007577297498412227 5.805580497011158e-06
-0.9999448857249746 0.01049882992982746 9.086877713968892e-06
-0.9999015051316402 0.01403495157302572 1.303160223119771e-05
-0.9998326043844832 0.01829652687595401 1.772057102418071e-05
-0.9997259336067746 0.0234106200107528 2.334040539835475e-05
-0.9995641344976334 0.02952185830931714 3.013239614669393e-05
-0.9993228989079879 0.03679323633612055 3.844540624356454e-05
-0.9989685933324346 0.04540646609552159 4.870454518340299e-05
-0.9984552691389276 0.05556142330700638 6.139063945144422e-05
-0.9977210226747847 0.06747410603167074 7.699355937633505e-05
-0.9966837095939575 0.08137305329721936 9.605787395605643e-05
-0.9952361446565999 0.09749360057311748 0.0001192323621228879
-0.9932410973968414 0.1160693791940425 0.0001471578305698263
-0.9905265759215011 0.1373210464707479 0.0001805253577772794
-0.9868821674722689 0.1614420611411413 0.0002200448514190415
-0.9820574023331993 0.1885820448554641 0.000266234295166362
-0.9757631844171207 0.2188289420614424 0.0003194564596354136
-0.9676771579166904 0.2521919383252214 0.000379855293392557
-0.9574533937619678 0.2885875929555576 0.0004471753651470021
-0.9447360979992465 0.3278314106758296 0.0005208756603217263
-0.929176353075681 0.3696362329873558 0.0006001232324995518
-0.9104512626147965 0.4136158009424568 0.0006838229684795055
-0.8882877612691599 0.4592866845230596 0.0007711026125190656
-0.862501945454714 0.5060530109711223 0.0008626551419937407
-0.8330898556930867 0.5531368340097085 0.0009670589372537066
-0.8004816318561502 0.5993562098124731 0.001136142658797821
-0.7663361716809305 0.6424376040984674 0.001672367673629475
-0.7364138914720556 0.6765190248833036 0.004073010916599017
-0.8706224128422606 0.4919364464071824 -0.003891908656831772
-0.8910034105761152 0.4539959459719704 -0.000776777153261849
-0.9127629229534572 0.4084897093105757 -6.219985465303212e-05
-0.9318744068775051 0.3627810297432305 0.0001194367563556434
-0.9475979095355791 0.3194654452729574 0.0001764096117524991
-0.9601389863770629 0.2795229674400492 0.0001936810135660586
-0.9699598213960321 0.2432650966597354 0.0001939703754124799
-0.977552905114879 0.2106900169270811 0.0001856575510229008
-0.9833652881946525 0.1816388728700874 0.0001727319644436973
-0.9877768010083203 0.1558748427727903 0.0001574176816043818
-0.9910989535887821 0.1331271733212502 0.0001411336759963539
-0.9935816740385796 0.1131169370026773 0.0001248111600993664
-0.995422521412331 0.0955719204308869 0.0001090425106858992
-0.9967759881260816 0.08023478430322001 9.425014078570457e-05
-0.9977618846230937 0.0668671450570635 8.065537670025082e-05
-0.998472492869322 0.05525102996651687 6.834442318597276e-05
-0.9989784639468718 0.0451887738038854 5.73798723266559e-05
-0.9993335757945314 0.03650208227663397 4.774080954354277e-05
-0.9995785216232317 0.0290306313937876 3.937501834290704e-05
-0.9997438959579067 0.0226305425214708 3.225041942731069e-05
-0.9998525360409782 0.01717281233542612 2.624721188538683e-05
-0.99992134662746 0.01254193402974342 2.120188498132966e-05
-0.9999627207183102 0.008634632974267845 1.694209029553792e-05
-0.9999856422665883 0.005358645783449837 1.32682494257855e-05
-0.9999965369829329 0.002631714566305086 1.002911122542199e-05
-0.9999999275313914 0.0003806393858248777 7.132292494622032e-06
-0.9999989346436747 -0.001459688550937407 4.566101061578862e-06
-0.9999956575754206 -0.002947002690228211 2.333604328568205e-06
-0.9999914617780887 -0.004132356560391104 4.23078521677806e-07
-0.999987194199672 -0.005060774180982591 -1.164565452608918e-06
-0.9999833431098887 -0.00577178453169633 -2.467752267645705e-06
-0.9999801549414319 -0.006299977044942975 -3.541549904690648e-06
-0.9999777185577156 -0.006675505144291285 -4.378887800073921e-06
-0.9999760241681885 -0.00692467067948103 -4.976239609878593e-06
-0.9999750048540997 -0.00707033510464257 -5.343285816039714e-06
-0.9999745651131383 -0.007132257448506643 -5.520645628919445e-06
-0.9999745991711383 -0.007127480710308999 -5.589764089865736e-06
-0.9999750027644795 -0.007070630414387808 -5.632214360192656e-06
-0.9999756800686469 -0.006974183713474244 -5.725143292516612e-06
-0.9999765471525851 -0.00684873057058797 -5.862118140557401e-06
-0.9999775330025248 -0.00670324202868464 -6.040589216748965e-06
-0.9999785791756066 -0.006545315156802658 -6.279553394300238e-06
-0.9999796394418562 -0.006381274032111713 -6.592564949172827e-06
-0.9999806790266925 -0.006216230731514617 -6.986191366187951e-06
-0.9999816727786363 -0.00605425896882052 -7.428211720854223e-06
-0.9999826032845981 -0.005898564718916362 -7.900301655211493e-06
-0.9999834592213578 -0.005751627073945686 -8.34796651020754e-06
-0.9999842345493367 -0.005615209412893891 -8.719284013717379e-06
-0.9999849276991425 -0.005490381930917415 -8.988479345086733e-06
-0.9999855407790804 -0.005377559770279448 -9.148041899605641e-06
-0.999986078900524 -0.005276544361385568 -9.206341668544324e-06
-0.9999865493252093 -0.005186625596272029 -9.14244899984061e-06
-0.999986961655064 -0.005106509551551871 -8.948348465023822e-06
-0.9999873281191546 -0.005034235487168443 -8.612397846630497e-06
-0.9999876639547421 -0.004967078780216655 -8.168737899447605e-06
-0.9999879875548189 -0.004901498462757256 -7.673492502172365e-06
-0.999988320446661 -0.004833106560353252 -7.158332802696251e-06
-0.9999886877423624 -0.004756505335886731 -6.655609291400261e-06
-0.9999891184230194 -0.004665082788128417 -6.175089531834352e-06
-0.999989645394985 -0.004550721886475816 -5.755330911932919e-06
-0.9999903040285532 -0.004403614388319904 -5.403732248022191e-06
-0.9999911292495132 -0.004212053660182574 -5.123126454271012e-06
-0.9999921510484852 -0.003962047080564931 -4.935037679151552e-06
-0.9999933864350861 -0.003636902898411348 -4.836889343810535e-06
-0.9999948262786926 -0.00321673636887364 -4.793746183223886e-06
-0.9999964144631412 -0.002677879562522607 -4.680800750259078e-06
-0.999998015526431 -0.001992215761670996 -4.422473283619614e-06
-0.9999993655731007 -0.001126426810651226 -4.00448731254061e-06
-0.9999999991456565 -4.119574566495529e-05 -3.405436765789454e-06
-0.9999991421417704 0.00130985077795823 -2.581119105619284e-06
-0.9999955557641607 0.002981350334946422 -1.451558710068379e-06
-0.9999873120463824 0.005037434490891834 3.225647067607795e-08
-0.9999714742185153 0.007553194389887483 1.938363855662224e-06
-0.9999436469128321 0.01061616596578061 4.341883454716866e-06
-0.9998973505061328 0.01432788882877272 7.247444446581452e-06
-0.9998231617764556 0.01880545295309179 1.070327398866631e-05
-0.9997075471727012 0.02418304995473279 1.486027340137382e-05
-0.999531299055443 0.03061342534477748 1.992983633760083e-05
-0.9992674819993423 0.03826876965097906 2.623154478486809e-05
-0.9988787807337715 0.04734110510788762 3.416105133311923e-05
-0.9983141569870463 0.05804172643653335 4.417589009955764e-05
-0.9975047702179506 0.0705990805286528 5.675334294372983e-05
-0.996359167172035 0.08525493971972666 7.242674935060921e-05
-0.9947578871734288 0.1022581902412962 9.18413316516579e-05
-0.9925478380678613 0.1218555528912126 0.0001156563479480908
-0.9895370263425018 0.1442790788388836 0.0001445912910441586
-0.9854905640402398 0.1697301269810322 0.0001793952393546502
-0.9801291450372417 0.1983603044076882 0.0002206441806745596
-0.9731313271449338 0.2302506197608653 0.000268754305388182
-0.9641408130936961 0.265391008913918 0.0003239053550471025
-0.9527793829830264 0.3036631332242564 0.0003858534826483472
-0.9386653042461663 0.3448292917881092 0.0004540147162296735
-0.9214361750644245 0.3885294031063506 0.0005274509131139303
-0.9007754638287884 0.4342846967584847 0.0006049176983150903
-0.8764453394941693 0.4815008796644226 0.0006853913752611196
-0.8483383297627777 0.5294539508197734 0.0007695561272544233
-0.8165872818297134 0.5772213270775733 0.0008664414375842008
-0.7818463244640267 0.6234703410709601 0.001028944581638533
-0.7460891301316689 0.6658442656061755 0.001556874671250811
-0.7153284063177868 0.69877749473458 0.003909471488475175
-0.8400129779554881 0.542552699382254 -0.003842558962682753
-0.8643735614146828 0.5028494988608705 -0.0008531252360520291
-0.8909317329190147 0.4541372299922142 -0.0001536649597347325
-0.914611490648779 0.4043337971550376 4.063750520213033e-05
-0.9342632620541107 0.3565839929511101 0.0001146606039942893
-0.9500031554761128 0.3122402647021218 0.0001472554830334318
-0.9623473676208522 0.2718225864119408 0.0001598422312420943
-0.971891452692624 0.2354293488134981 0.0001609356166158722
-0.9791914337772666 0.2029386902049092 0.000155032694604694
-0.9847251919289867 0.1741156954080312 0.000144889605639933
-0.9888864503156707 0.1486726970835819 0.0001323781151515222
-0.991991531250649 0.1263043459877009 0.0001187923029745465
-0.9942904077037092 0.1067078915648517 0.0001050055947212502
-0.9959783225048046 0.0895944903488536 9.164957252020681e-05
-0.9972064156989295 0.07469510179142311 7.910286154542813e-05
-0.9980908452495494 0.0617629343830586 6.756799318932043e-05
-0.9987203234572285 0.05057382962548432 5.718829237985885e-05
-0.9991621992676183 0.04092550855952156 4.799834056091091e-05
-0.9994672978359365 0.03263616028161427 3.998253875214531e-05
-0.999673728889792 0.02554280074549371 3.313086426425995e-05
-0.9998098655699998 0.01949953746922447 2.733833788361874e-05
-0.9998966598623036 0.0143759901236921 2.245378331014365e-05
-0.9999494387226157 0.01005582731499063 1.831220265425875e-05
-0.9999792927098353 0.006435365958767273 1.471440349386962e-05
-0.9999941435455284 0.003422388361980833 1.15127936571405e-05
-0.999999562826689 0.0009350251571151132 8.624736549568672e-06
-0.9999993956860491 -0.001099359355102426 6.045203166614225e-06
-0.9999962324369271 -0.002745013229700503 3.784128306363687e-06
-0.999991763785061 -0.004058615362370742 1.839104414201785e-06
-0.9999870456656101 -0.005090039382706869 2.17704988728695e-07
-0.9999826951137802 -0.005882981534626026 -1.114988618676858e-06
-0.9999790330630467 -0.006475602628328173 -2.212136100552596e-06
-0.9999761870300863 -0.006901113197219255 -3.067316775994702e-06
-0.9999741629536771 -0.007188422047515932 -3.68231291228298e-06
-0.9999728956401561 -0.00736260609124418 -4.072635954698144e-06
-0.999972283326203 -0.007445304632736966 -4.278445693778197e-06
-0.9999722099230767 -0.007455156764336675 -4.379206387494114e-06
-0.9999725593552858 -0.007408138535691719 -4.458183861153521e-06
-0.999973224092639 -0.007317860114538516 -4.595239548700997e-06
-0.9999741094707614 -0.007195857507459114 -4.78436009176792e-06
-0.9999751351077906 -0.007051889175617104 -5.020974315937759e-06
-0.9999762346713834 -0.00689420511086053 -5.322710700217722e-06
-0.9999773554931887 -0.006729670747486394 -5.699004345739492e-06
-0.9999784577119402 -0.006563845992610741 -6.150990779761914e-06
-0.9999795122581523 -0.006401173314490656 -6.644186858681217e-06
-0.9999804987787453 -0.006245158998966654 -7.161638182789637e-06
-0.9999814038047662 -0.006098523270987049 -7.652566924458014e-06
-0.9999822198141725 -0.00596321980606488 -8.066238781506556e-06
-0.999982944307762 -0.005840464315404903 -8.376139044042074e-06
-0.9999835789089754 -0.005730779954475801 -8.573787178008892e-06
-0.999984128641232 -0.005634038557925632 -8.669670164739491e-06
-0.9999846010220179 -0.005549562511802443 -8.6465634796012e-06
-0.999985006270544 -0.005476053496675657 -8.497143931826469e-06
-0.9999853576489953 -0.005411508129560685 -8.208176130785973e-06
-0.9999856719118035 -0.005353121528495441 -7.810214201522303e-06
-0.9999859695454881 -0.005297231165489982 -7.358606696566971e-06
-0.9999862748428425 -0.005239282249785424 -6.887775788070916e-06
-0.9999866165200937 -0.00517365821213567 -6.434160958858987e-06
-0.9999870281803287 -0.005093469836229123 -6.008483042210402e-06
-0.9999875485754073 -0.004990256733024128 -5.646746870194984e-06
-0.9999882202930672 -0.004853786809113999 -5.358705971217049e-06
-0.999989086901257 -0.004671836024925441 -5.152316469995925e-06
-0.9999901884394035 -0.004429785478476164 -5.053742252079299e-06
-0.9999915531259068 -0.004110188707079685 -5.062465579720876e-06
-0.9999931835820197 -0.003692257168920031 -5.147339886654543e-06
-0.9999950347957435 -0.003151246881771022 -5.191263854196806e-06
-0.9999969796769145 -0.002457765410510318 -5.121987551814557e-06
-0.9999987565435067 -0.001576986733164865 -4.927825180287895e-06