# OOMMF: rectangular mesh v1.0
# Segment count: 1
# Begin: Segment
# Begin: Header
# Title: 
# Desc: time = 2.1391408164374192e-10
# Desc: stepsize = 3.092892981009027e-13
# Desc: step = 480
# meshunit: m
# valueunit: (none)
# valuemultiplier: 800000.0000000002
# xmin: 0
# ymin: 0
# zmin: 0
# xmax: 4e-07
# ymax: 1e-07
# zmax: 4e-09
# ValueRangeMaxMag: 1
# ValueRangeMinMag: 0.9999999999999996
# meshtype: rectangular
# xbase: 2e-09
# ybase: 2e-09
# zbase: 1e-09
# xstepsize: 4e-09
# ystepsize: 4e-09
# zstepsize: 2e-09
# xnodes: 100
# ynodes: 25
# znodes: 2
# End: Header
# Begin: Data Text
-0.9439209466345649 0.3301643807630001 -0.002174437833348847
-0.9507896709687503 0.3098361320579064 0.0007568688992897807
-0.9591159428093518 0.2830106418461753 0.00125890855263054
-0.9671669340392887 0.2541388085683287 0.001260031948901136
-0.9742266720317662 0.2255682649227222 0.001161620274291683
-0.9800993292257285 0.1985049520528797 0.001043485390626637
-0.9848309983985871 0.1735138269900665 0.0009254385460798832
-0.9885637034357753 0.1508016647869273 0.0008137240535972378
-0.9914640954969901 0.1303780752823099 0.0007105110942785178
-0.9936913238702798 0.1121479949794681 0.0006165119750132615
-0.9953845871600733 0.09596478988324358 0.0005317394429893858
-0.9966600941881132 0.08166057100832513 0.0004558459554262357
-0.9976122024759521 0.0690633234156212 0.0003883682127194471
-0.9983161795517265 0.05800601337093243 0.0003287218519635544
-0.9988313270449586 0.04833118886784898 0.000276217716258313
-0.999203923791577 0.03989317877869934 0.0002301444041800597
-0.9994698101522025 0.03255860215707651 0.0001897890860231029
-0.9996565507924016 0.02620604090116838 0.0001545254815937777
-0.9997851950727282 0.02072554914960181 0.0001237975525727823
-0.9998717027093208 0.01601776156572366 9.713694712732049e-05
-0.9999280792280901 0.01199295068199629 7.419677331073651e-05
-0.999963272832704 0.008570297764772713 5.460704811282613e-05
-0.9999838844253471 0.005677098739292038 3.794072068148246e-05
-0.999994724721062 0.003248070313899941 2.385965069311815e-05
-0.9999992500438661 0.001224649805257199 1.202329864672383e-05
-0.9999999006801754 -0.0004456850988862442 2.105079112944759e-06
-0.9999983620809684 -0.001809916438750215 -6.153457567397693e-06
-0.999995765815174 -0.002910014164780468 -1.30109350477741e-05
-0.9999928425692283 -0.003783445676573114 -1.868492881247168e-05
-0.9999900385590065 -0.004463433161411055 -2.339165854968672e-05
-0.9999876025301515 -0.004979361401671559 -2.731357126671717e-05
-0.9999856499702665 -0.005357137509589897 -3.051632632897276e-05
-0.9999842098684928 -0.005619512712473763 -3.302363214551045e-05
-0.9999832577950702 -0.005786442210679157 -3.487263038327093e-05
-0.9999827399083021 -0.005875251733879083 -3.609083400636186e-05
-0.9999825887472209 -0.005900919503783516 -3.676160847375837e-05
-0.9999827336364563 -0.00587631389484972 -3.693195417233276e-05
-0.9999831069436245 -0.005812442347486493 -3.66242027990898e-05
-0.9999836472595841 -0.005718734561921992 -3.589469955856113e-05
-0.9999843013810122 -0.005603193818736273 -3.479307504731658e-05
-0.9999850249262251 -0.005472550131127647 -3.344187148459371e-05
-0.9999857819849993 -0.005332429870824988 -3.192994612998746e-05
-0.9999865444451715 -0.005187485778679432 -3.032986030334882e-05
-0.9999872907824747 -0.005041572167799315 -2.869847525507531e-05
-0.9999880050985352 -0.004897849116863655 -2.707545292577507e-05
-0.9999886765986998 -0.004758783511313733 -2.557093498268773e-05
-0.9999892985898916 -0.004626242347251435 -2.423717371462756e-05
-0.9999898677643133 -0.004501537001137539 -2.309411693318687e-05
-0.9999903833912707 -0.004385502777518204 -2.214423859140929e-05
-0.9999908470425467 -0.004278477828735044 -2.141490888656245e-05
-0.9999912624321994 -0.00418026555223442 -2.095635084968359e-05
-0.9999916348587352 -0.004090205702870381 -2.073310650058362e-05
-0.9999919713904655 -0.004007084431311568 -2.071159494728112e-05
-0.9999922806983262 -0.003929135855883233 -2.086109827313142e-05
-0.9999925730632999 -0.003854006988347935 -2.117484464687444e-05
-0.9999928604829338 -0.003778692406018521 -2.160693853055802e-05
-0.9999931567565338 -0.003699453234160599 -2.204247727739365e-05
-0.9999934777366938 -0.00361164524335823 -2.242115052973036e-05
-0.9999938407814984 -0.003509684454716278 -2.267365605074766e-05
-0.9999942642441094 -0.003386880849204148 -2.273752362466593e-05
-0.9999947664967125 -0.003235192857808135 -2.250240003709296e-05
-0.9999953637842587 -0.003044984965755621 -2.182992985270281e-05
-0.999996066606134 -0.002804700793761132 -2.063291990482581e-05
-0.9999968734197762 -0.002500559341142953 -1.880566856831589e-05
-0.9999977607661662 -0.002116175105021557 -1.62965731705439e-05
-0.9999986681543221 -0.001632029542282266 -1.300595901053477e-05
-0.9999994747537967 -0.001024897428776424 -8.797197048239088e-06
-0.9999999643066765 -0.0002671588126253661 -3.579707436174492e-06
-0.9999997729198179 0.0006739085393230259 2.755453312147625e-06
-0.9999983128792638 0.001836881195601668 1.030043404050107e-05
-0.9999946624231398 0.003267224456778552 1.922444995360787e-05
-0.9999874078329745 0.005018295237189219 2.980604368636998e-05
-0.9999744193499742 0.007152541496239973 4.237718633659984e-05
-0.9999525365288381 0.009742761291140503 5.737565660124522e-05
-0.9999171326104757 0.01287331495535878 7.532664788491654e-05
-0.9998615151186819 0.01664155088245509 9.679256393344609e-05
-0.9997761162140255 0.02115898045519374 0.0001224503792122099
-0.9996474109312573 0.02655240827861613 0.0001530785390038346
-0.9994564905239076 0.03296494495427578 0.000189614860208527
-0.9991772266283813 0.04055632453651254 0.0002330821852427325
-0.9987739626057958 0.0495024313800276 0.0002844436356158845
-0.9981986884445729 0.05999382890394186 0.0003447912097257938
-0.9973877082576886 0.07223286585604229 0.0004153392572753255
-0.9962578744299396 0.08642916350215818 0.0004973255027807619
-0.9947026031270172 0.1027929022915501 0.0005920902083744863
-0.992588001494721 0.1215259966528304 0.0007010180107386413
-0.9897495726000198 0.1428114222469908 0.0008253568134791945
-0.9859901626752571 0.1668006765533015 0.0009661309334060634
-0.9810797460707276 0.1936007965187069 0.001124027187547083
-0.9747574768309688 0.2232625651474938 0.001299371341754539
-0.9667362598084116 0.2557709479772811 0.001492026288559963
-0.9567095650043312 0.291039367991014 0.001701325546092967
-0.9443599203542834 0.3289082402458126 0.001926220873587258
-0.9293692711841234 0.3691450520783037 0.002165249361485305
-0.9114335000056595 0.411440318007729 0.002416564737818626
-0.890289502219303 0.4553871173564401 0.002678728037166422
-0.8657793138784462 0.5004172799105691 0.002953917242228067
-0.8380225685278906 0.5456257754282388 0.003269224105163443
-0.807952105213382 0.5892357786686593 0.003820054711973963
-0.7795919005591015 0.6262617741348063 0.005714791349827162
-0.9251201178197883 0.379658057705527 -0.003539325411339303
-0.9364390800426868 0.3508300978241369 -0.0003030338469472861
-0.9483973754011211 0.3170840422048626 0.0003584847127544419
-0.9591251880069744 0.2829817199365386 0.0004689481251775045
-0.9681824177507389 0.2502450593846018 0.0004649859464489259
-0.9755660263340098 0.2197060327572692 0.0004329352506689551
-0.9814461231846406 0.1917377181932 0.0003933292563736759
-0.9860509462288788 0.1664434055002755 0.0003524295721001831
-0.9896111723834985 0.1437693631500661 0.0003125910778429669
-0.9923351007468729 0.1235757752919018 0.0002749303517443978
-0.9944000961899312 0.1056806089074659 0.0002399966711498906
-0.9959520377989011 0.08988601187366664 0.0002080232277412723
-0.997108276950805 0.07599376257227097 0.0001791265084438917
-0.9979618227627857 0.06381360994154961 0.0001532781968374953
-0.9985856024088018 0.05316744946961573 0.0001303025169488999
-0.9990363091703901 0.0438912390932451 0.0001099548263256856
-0.9993577055502909 0.03583528852096286 9.194496688749863e-05
-0.9995833531658173 0.02886371933333553 7.602648823374211e-05
-0.9997388164459706 0.02285377537510579 6.198640167007128e-05
-0.9998434342602665 0.01769475911707586 4.966311035126576e-05
-0.9999117241499804 0.01328692544588112 3.898215360335324e-05
-0.9999544869882249 0.00954060075633632 2.982152944304962e-05
-0.9999796775773439 0.006375260725361769 2.197713594528689e-05
-0.9999930854182324 0.003718720406010478 1.530571989492717e-05
-0.9999988654337618 0.001506332707123677 9.641769931873778e-06
-0.9999999488578381 -0.0003197829023782035 4.818323360022884e-06
-0.9999983595452286 -0.001811327229412331 7.204464422593011e-07
-0.9999954566217838 -0.003014420020117926 -2.780664021791901e-06
-0.9999921188367042 -0.003970167624689094 -5.788807867607902e-06
-0.9999888844012739 -0.004714976455511276 -8.421351057027663e-06
-0.9999860553147878 -0.005281009364861857 -1.077302662430069e-05
-0.9999837742258012 -0.005696588491799425 -1.283262429977353e-05
-0.9999820802791282 -0.005986560677400519 -1.455618257358547e-05
-0.9999809486219599 -0.006172693065066523 -1.592009035175055e-05
-0.9999803189313399 -0.006273871565856377 -1.689823392265546e-05
-0.9999801142310131 -0.00630641223591789 -1.752826915640656e-05
-0.9999802532832572 -0.006284323837947831 -1.781718464646855e-05
-0.9999806580558592 -0.006219581901373812 -1.775224488999638e-05
-0.9999812575552245 -0.006122437173917404 -1.735865157589848e-05
-0.9999819901699561 -0.006001587973925275 -1.665907592714247e-05
-0.9999828044380585 -0.005864348213784204 -1.575507933051661e-05
-0.9999836586733186 -0.005716832135041944 -1.471948538960154e-05
-0.9999845202028503 -0.005564096456657034 -1.36123334073655e-05
-0.9999853639911417 -0.005410327880493438 -1.247915798917579e-05
-0.9999861715143995 -0.005258959133628871 -1.134919134183175e-05
-0.9999869301388754 -0.005112674919323049 -1.032457308126499e-05
-0.9999876319732123 -0.004973510958674057 -9.45254619558189e-06
-0.9999882730420346 -0.004842902215400941 -8.748770918506856e-06
-0.9999888523592046 -0.004721767667617286 -8.210562441162919e-06
-0.9999893715907894 -0.004610492776946371 -7.862014928326569e-06
-0.9999898348667664 -0.004508891551859277 -7.753091182767862e-06
-0.9999902481560401 -0.004416280242558071 -7.851120633735785e-06
-0.9999906194777174 -0.004331384365406501 -8.127083748749133e-06
-0.9999909587314427 -0.004252338432547468 -8.557166138820625e-06
-0.999991277718047 -0.004176649875401547 -9.145796172562108e-06
-0.9999915902866005 -0.004101128973462905 -9.859932479589436e-06
-0.9999919124652128 -0.004021802064466918 -1.059810277793026e-05
-0.9999922627961355 -0.003933728490124638 -1.13150309372951e-05
-0.9999926617751377 -0.003830959781510501 -1.195940328878754e-05
-0.9999931313308212 -0.003706364141828186 -1.249107962465576e-05
-0.9999936938040167 -0.003551364203737264 -1.282537763097965e-05
-0.9999943696139212 -0.00335567805758237 -1.285417384159502e-05
-0.9999951732798991 -0.003106969577699153 -1.25278808711817e-05
-0.9999961064143744 -0.002790522743024478 -1.1786063315035e-05
-0.9999971466708973 -0.002388835911774096 -1.063251085096173e-05
-0.9999982307667235 -0.00188105869860771 -9.032984021116544e-06
-0.9999992282210993 -0.001242380472996446 -6.925707484343863e-06
-0.9999999017351772 -0.0004432956857639977 -4.309348862946885e-06
-0.9999998481146071 0.000551152764212907 -1.180180742862944e-06
-0.999998411917804 0.001782177312435538 2.42819815760042e-06
-0.9999945604306312 0.003298342983236422 6.535530833528434e-06
-0.9999867043879683 0.005156638515250665 1.124779549853165e-05
-0.999972443431879 0.007423752294833371 1.669556822648829e-05
-0.9999482085082003 0.01017741462483634 2.308233868165674e-05
-0.9999087665747196 0.01350768621491078 3.066173431741865e-05
-0.9998465391716165 0.01751846259697192 3.968348795797555e-05
-0.9997506816658854 0.0223287250248342 5.047140278308414e-05
-0.9996058532131331 0.02807372796373361 6.340553917687015e-05
-0.9993905952831643 0.03490604277764496 7.897573804798329e-05
-0.9990752460088795 0.04299585171314782 9.771262722903477e-05
-0.9986193195356181 0.05253037444474204 0.0001200454652139082
-0.9979683040976013 0.06371218530558481 0.0001464928138403248
-0.9970498958725024 0.07675593511625187 0.0001776655896635282
-0.9957697653148926 0.09188323356608616 0.0002141825460903197
-0.9940071188667166 0.1093150571048986 0.000256773132831778
-0.9916104675093744 0.1292616994331135 0.0003062441877720626
-0.9883941860287215 0.1519105033340343 0.0003633199981479758
-0.9841366865925867 0.1774113818831967 0.0004285800495126063
-0.9785809747332314 0.205861661113882 0.000502367984323821
-0.9714381612851672 0.2372921339260513 0.0005847868962056982
-0.9623942540786832 0.2716557440200312 0.0006756162059294477
-0.9511198746983184 0.3088209586316112 0.0007742504163891802
-0.9372820634796418 0.3485707379044797 0.0008798613927815585
-0.9205579362576495 0.3906047913794386 0.0009914355662941812
-0.9006520635762888 0.4345395641094376 0.001107970826367169
-0.8773261737193047 0.4798929802907825 0.001229786434531241
-0.8504691628402756 0.5260231391399414 0.001363872106323777
-0.8202983587348589 0.5719337222156355 0.001555650817034601
-0.788044041094645 0.6156153221307034 0.002089127361247833
-0.7588393402518367 0.6512626321050921 0.00445417890346926
-0.8996394472714985 0.4366173533972998 -0.003761864613405237
-0.9155990020466847 0.4020922239192461 -0.0005575973361645513
-0.9323385023849804 0.361586638209103 0.000141559777790643
-0.9469808065679779 0.3212900065051988 0.0002893298304627966
-0.9590641552611959 0.2831887123554905 0.0003150992977607267
-0.9687525228504343 0.2480291419455309 0.0003069473601850176
-0.9763795035314666 0.2160624508846458 0.0002870563817224405
-0.9823038801081958 0.1872939350611581 0.000262704567010322
-0.9868570070130854 0.1615957660173018 0.0002368849011344411
-0.9903246291324863 0.1387698971074218 0.0002111643876884189
-0.9929437598401539 0.118586065934552 0.0001864421212599076
-0.9949061979608743 0.1008049136552035 0.0001632237864511113
-0.9963645646632195 0.08519174938355152 0.0001418465460903707
-0.997438870810293 0.07152400993980171 0.0001224696622551333
-0.9982226393802474 0.05959489230562076 0.0001050705192242037
-0.9987882094659621 0.04921488206198891 8.952877546956901e-05
-0.9991911781821061 0.04021173608437217 7.565801237606714e-05
-0.9994740187973399 0.03242964295969586 6.32977198439647e-05
-0.9996689724188775 0.02572824997060175 5.23109442770428e-05
-0.9998003518838195 0.01998135526391316 4.260055566636455e-05
-0.9998863565854016 0.01507556793257099 3.414500749462076e-05
-0.9999404924611679 0.01090920777606916 2.687405547222366e-05
-0.9999726845206603 0.007391196586023361 2.062934985055275e-05
-0.9999901426796107 0.004440079901075191 1.529977521699866e-05
-0.9999980336339047 0.00198308164214956 1.074820314017369e-05
-0.9999999989732183 -4.479757436726395e-05 6.836680842867346e-06
-0.9999985524530147 -0.001701493398875665 3.476816649030279e-06
-0.9999953835097797 -0.003038578419132586 5.651175196772212e-07
-0.9999915871117554 -0.004101914404537152 -1.982495564333921e-06
-0.9999878373747714 -0.004932046665752679 -4.267803591714123e-06
-0.9999845167568328 -0.005564728745416911 -6.371297143148043e-06
-0.9999818109838136 -0.006031387332266865 -8.269239707624716e-06
-0.9999797778181092 -0.006359548470398695 -9.90440597307931e-06
-0.9999783956754275 -0.006573283508503428 -1.123897738249021e-05
-0.9999775985012169 -0.006693455466803212 -1.223326919932841e-05
-0.9999772988654503 -0.006738069974026015 -1.291444311734578e-05
-0.9999774031759886 -0.006722571012257682 -1.328124449478507e-05
-0.9999778208793659 -0.006660148055415259 -1.331293368995114e-05
-0.9999784692541411 -0.006562077298612995 -1.30257907824557e-05
-0.9999792762730794 -0.006437924334631771 -1.243500086901686e-05
-0.9999801816186678 -0.006295731445187787 -1.16389768150224e-05
-0.9999811363203897 -0.006142221800427225 -1.071151902111178e-05
-0.9999821019102884 -0.005982956182720376 -9.715815451979695e-06
-0.9999830488608168 -0.005822535131871381 -8.698460308013852e-06
-0.9999839552472097 -0.00566473203692525 -7.687380769169349e-06
-0.9999848059989771 -0.005512506251522991 -6.783398743207432e-06
-0.9999855915814746 -0.00536810888770517 -6.034680655270701e-06
-0.9999863070416692 -0.005233134757950134 -5.456088177820328e-06
-0.9999869509293656 -0.005108614840662944 -5.039815820401794e-06
-0.9999875248729904 -0.004995005034436247 -4.805819758401866e-06
-0.9999880333615375 -0.004892147857099406 -4.802988916989182e-06
-0.9999884830401042 -0.004799350179220787 -5.000772470820379e-06
-0.9999888829558031 -0.004715287472413514 -5.371915817884502e-06
-0.9999892443961401 -0.004638001431794108 -5.895308262653815e-06
-0.9999895809368664 -0.00456486301843986 -6.582749330356733e-06
-0.9999899086548661 -0.004492497473525358 -7.408251744765615e-06
-0.9999902463354469 -0.00441669169353253 -8.273817531900848e-06
-0.9999906159511971 -0.00433219645182473 -9.134986280872654e-06
-0.9999910421263624 -0.00423267860589185 -9.942363481890224e-06
-0.9999915516468657 -0.004110537830865509 -1.065993855098272e-05
-0.9999921724623891 -0.003956625883065636 -1.120590304324183e-05
-0.9999929312214583 -0.003759970138444985 -1.147489095175212e-05
-0.9999938489954026 -0.003507398016995678 -1.142410377428379e-05
-0.9999949335822519 -0.003183188455937617 -1.100368147394873e-05
-0.999996167258122 -0.002768639437814081 -1.023371195554314e-05
-0.9999974878657102 -0.002241468149833972 -9.09952878031288e-06
-0.9999987594057203 -0.001575160279925886 -7.557282524562963e-06
-0.9999997275266894 -0.0007381834998348761 -5.627333731169873e-06
-0.9999999529248859 0.0003068210018262951 -3.3314040370736e-06
-0.9999987137587401 0.001603895359510782 -7.356481436638651e-07
-0.9999948642012804 0.003204928468131369 2.13927591339913e-06
-0.9999866313151752 0.005170798992935255 5.35742512335284e-06
-0.9999713263995886 0.007572733826896422 9.001867169431906e-06
-0.9999449390809614 0.01049374249610691 1.322110383362023e-05
-0.9999015747198868 0.01402998721737964 1.820357764280566e-05
-0.9998326802198207 0.01829237498239775 2.412368806679988e-05
-0.9997259970556379 0.02340790114534156 3.122627160596739e-05
-0.9995641621179159 0.02952091165641626 3.980555736427565e-05
-0.9993228628428031 0.03679420163816146 5.025409669483275e-05
-0.9989684629494254 0.0454093169205665 6.300213975518411e-05
-0.9984550178134644 0.05556591815494062 7.837545834169157e-05
-0.997720627373016 0.06747992551718514 9.678114455290799e-05
-0.9966831497931288 0.08137987972962674 0.0001187166320376105
-0.9952353949425684 0.09750121905636623 0.0001446928896067171
-0.9932401127460351 0.1160777656788949 0.0001753489053349823
-0.9905252846260605 0.1373303164538907 0.0002114217006982066
-0.9868804487804433 0.1614525178242006 0.0002535806309422376
-0.982055089275892 0.1885940354381153 0.0003023648228705244
-0.9757601019306176 0.2188426266887392 0.0003580842407424566
-0.9676731410238875 0.2522072859100574 0.0004208026208569624
-0.9574483261337376 0.2886043354365666 0.0004902559752860462
-0.9447299476015907 0.3278490597833759 0.0005657772101427919
-0.9291691331394886 0.3696543035385795 0.0006464489295576501
-0.9104430077157998 0.4136338901258159 0.0007311913511225111
-0.8882784919615542 0.4593045284394617 0.0008190686848176562
-0.8624916277907879 0.506070511166322 0.0009108889361090985
-0.8330784403230966 0.5531539395602358 0.001015587429675979
-0.8004690957193578 0.5993728569531183 0.001185388581808495
-0.7663225720138901 0.6424536914788245 0.001723347686185169
-0.7363994697385114 0.6765343961371891 0.004126961609677898
-0.870577916904988 0.4920162165094455 -0.003759426698582716
-0.8909650020434728 0.4540715030904003 -0.0006597081918741422
-0.9127317575540822 0.4085593435433267 3.944212957144875e-05
-0.9318499303406869 0.3628438564890998 0.0002076828689407828
-0.947579028127991 0.3195213941155056 0.0002532873771563851
-0.9601245587989864 0.2795724656935604 0.0002608008321513969
-0.9699488667747316 0.2433087174661993 0.0002526803643207127
-0.9775446471506413 0.2107282767477057 0.0002370781941906907
-0.9833591405130755 0.1816721039323108 0.00021776637139216
-0.9877723116430738 0.1559032442848027 0.0001969080268787136
-0.9910957505688788 0.133150975524373 0.0001758443009570885
-0.9935794481901175 0.1131364485297001 0.000155397257881617
-0.9954210094603559 0.09558763200682385 0.0001361332202979718
-0.9967749724118085 0.08024736979256902 0.0001183841737371155
-0.9977612042959074 0.066877266288336 0.0001022535057863771
-0.998472035721243 0.05525926338141412 8.771100381751704e-05
-0.998978156074708 0.04519555415292185 7.463501944486935e-05
-0.9993333743544499 0.03650757378519042 6.290999225009181e-05
-0.9995783997569841 0.02903480652480168 5.243408569575896e-05
-0.9997438341715023 0.02263325375127272 4.313576331528469e-05
-0.9998525177883513 0.01717385939356037 3.501178004906504e-05
-0.9999213559401474 0.01254117818028408 2.801190565039639e-05
-0.9999627428508262 0.008632058069814914 2.19938852046119e-05
-0.9999856645810651 0.005354469945394428 1.685137970163929e-05
-0.9999965509348858 0.00262639741120787 1.244872681643623e-05
-0.9999999297322533 0.0003747808012920244 8.650958605617404e-06
-0.9999989263695255 -0.001465343274748785 5.374293520847777e-06
-0.9999956438275825 -0.002951663853452816 2.520790790324813e-06
-0.9999914493906312 -0.004135353143821434 7.72261241879435e-09
-0.9999871902358407 -0.00506155698306883 -2.266100244741008e-06
-0.9999833534031897 -0.005769999766886147 -4.381899797302461e-06
-0.9999801829628472 -0.006295525529135412 -6.316846246910571e-06
-0.9999777646509276 -0.006668593523622346 -8.009387738266821e-06
-0.9999760856330505 -0.006915784363843133 -9.414599095250263e-06
-0.999975077083043 -0.007060106432868586 -1.048418659446221e-05
-0.9999746425086624 -0.007121391251757801 -1.123885158959801e-05
-0.9999746764087836 -0.007116628754490529 -1.167556685316503e-05
-0.9999750756157453 -0.007060312224809068 -1.177166358245221e-05
-0.9999757453137582 -0.006964815219210208 -1.153929659977963e-05
-0.9999766025521919 -0.00684063062681951 -1.099100718064478e-05
-0.9999775776088771 -0.006696579344463357 -1.022570720696186e-05
-0.9999786136982118 -0.006540035114125009 -9.322431828169165e-06
-0.9999796660755539 -0.00637709696268046 -8.351760451605901e-06
-0.9999807003062121 -0.006212806198890254 -7.364243768196491e-06
-0.9999816906975389 -0.006051299767997605 -6.388181190118085e-06
-0.999982619410499 -0.005895832969791656 -5.523512205651969e-06
-0.9999834749747392 -0.005748891562938327 -4.821042062849397e-06
-0.9999842512059059 -0.005612247473637101 -4.296280504924804e-06
-0.9999849459647407 -0.005487060087019205 -3.936428320269925e-06
-0.9999855606339919 -0.005373872849644122 -3.757172724015833e-06
-0.9999860998751311 -0.005272574516849713 -3.806377775638782e-06
-0.9999865708457791 -0.005182481224704696 -4.056409195643508e-06
-0.999986983480146 -0.005102239723764395 -4.480939477195359e-06
-0.9999873503484774 -0.005029822802931678 -5.059849881944845e-06
-0.999987686745034 -0.004962491767943183 -5.811084374878272e-06
-0.9999880109822091 -0.004896717957723707 -6.71473850976592e-06
-0.9999883446982959 -0.004828085403721654 -7.674407999742813e-06
-0.9999887135315837 -0.004751077220516859 -8.642485067761892e-06
-0.999989146658421 -0.004659020692741256 -9.568052484383305e-06
-0.9999896763833835 -0.004543899004702817 -1.041587375606165e-05
-0.9999903372465317 -0.004396053947523433 -1.110214343717345e-05
-0.9999911635345808 -0.004203893445026976 -1.151770348099841e-05
-0.9999921848538154 -0.003953491659080767 -1.161868699233475e-05
-0.9999934179193565 -0.003628221184607255 -1.135773449195708e-05
-0.9999948533414413 -0.003208297802308839 -1.076291564664593e-05
-0.9999964350964806 -0.00267014937565788 -9.83063607545657e-06
-0.9999980283970703 -0.001985731427735561 -8.524584701430117e-06
-0.9999993708788106 -0.001121692796419759 -6.874065499552805e-06
-0.9999999992459632 -3.852206446067331e-05 -4.911625136205521e-06
-0.9999991414814752 0.001310354500874225 -2.719198215298827e-06
-0.9999955604069243 0.002979793000652527 -3.379999075766292e-07
-0.9999873286494454 0.005034137001805172 2.278699837364474e-06
-0.9999715085299099 0.00754864897908465 5.196738037916535e-06
-0.9999437014236651 0.01061102775950877 8.545591476674292e-06
-0.9998974226286516 0.01432285113367591 1.248926957551806e-05
-0.9998232407373067 0.01880124960262423 1.717350799029526e-05
-0.9997076124531061 0.0241803449659799 2.28174526554245e-05
-0.9995313242031759 0.03061259634855551 2.968915359724694e-05
-0.9992674354419256 0.03826997530490014 3.815073507032636e-05
-0.9988786278927717 0.04734431725486768 4.860785604068419e-05
-0.9983138675249947 0.05804668932444011 6.13657774983721e-05
-0.9975043179261431 0.07060545176838291 7.680678280006927e-05
-0.9963585292795619 0.08526237170791702 9.540759234525499e-05
-0.9947570369516923 0.1022664343184468 0.0001176727654963632
-0.9925467286597562 0.1218645584928569 0.0001442572592049875
-0.9895355823973437 0.1442889469686397 0.0001759324598691389
-0.9854886581433474 0.1697411533049848 0.0002134139581852536
-0.9801265995940123 0.1983728372642483 0.0002573013993767067
-0.9731279552523526 0.2302648211632951 0.0003079626766194271
-0.9641364408197646 0.2654068384585488 0.0003654898549612352
-0.9527738924211114 0.3036803012209817 0.0004296173385047343
-0.9386586741030317 0.3448472761963239 0.0004996309779350052
-0.9214284392019638 0.3885476822552977 0.0005744944460907106
-0.9007666812616301 0.4343028431522645 0.000652961536238194
-0.8764355556120003 0.4815186166479167 0.0007339486088424306
-0.8483275269880332 0.5294711865542057 0.0008182684456082709
-0.8165754154486504 0.577238038462993 0.0009153339607866052
-0.7818333739849942 0.6234864971999585 0.001078486238215828
-0.7460751554988555 0.6658598021953012 0.001608156644232603
-0.7153136588847553 0.6987922852690218 0.003963768585774922
-0.8399671520327981 0.5426245375700183 -0.003714126119797068
-0.8643333023545273 0.5029188771002875 -0.0007385777568466886
-0.8908983802893204 0.4542026785437092 -5.292999976967463e-05
-0.9145847962292059 0.4043941564782536 0.0001292773103670656
-0.93424233804288 0.3566387761043086 0.0001928392943557581
-0.9499869542194004 0.3122895132046261 0.0002162298865659945
-0.9623349313113264 0.2718665688832815 0.0002206845176968083
-0.9718819927392115 0.2354683548731393 0.0002145753853028956
-0.9791843371807678 0.2029728871394427 0.0002022526612148939
-0.9847199745445927 0.1741451606116509 0.0001864629675866054
-0.9888827046109795 0.1486975720969893 0.0001690376724573418
-0.9919889119191154 0.1263248818485854 0.0001511802561992691
-0.9942886164303069 0.1067245489534789 0.0001337452133503893
-0.9959771100467963 0.08960793775240244 0.0001172799755552608
-0.9972055964725355 0.07470601013623893 0.0001020459625662792
-0.9980902893459423 0.06177189123611009 8.812744867579567e-05
-0.9987199450182237 0.05058127840517981 7.548307024620264e-05
-0.9991619482452883 0.04093161462859538 6.405135009439082e-05
-0.9994671427622766 0.03264088919425089 5.377005966349572e-05
-0.9996736467920423 0.02554599617746502 4.459595576686976e-05
-0.9998098369518499 0.01950098968281117 3.654730731361943e-05
-0.9998966658945311 0.01437555763087368 2.959394219777747e-05
-0.9999494619655541 0.01005350473423126 2.360841922880992e-05
-0.9999793182352595 0.006431388642650394 1.848978064608536e-05
-0.9999941611190128 0.0034172399721432 1.410155541753461e-05
-0.9999995681103655 0.0009293400191540353 1.030586238596619e-05
-0.9999993896860159 -0.001104797860761069 7.020131883578942e-06
-0.9999962204294953 -0.002749383477248824 4.149546852679587e-06
-0.9999917531730441 -0.004061229285388612 1.610096327695403e-06
-0.9999870440945319 -0.005090347983256496 -6.998675261025959e-07
-0.9999827088537246 -0.005880644978027112 -2.865067811265648e-06
-0.9999790657822986 -0.006470546613381883 -4.866709955040444e-06
-0.9999762390352991 -0.006893570970726746 -6.639978670931494e-06
-0.9999742313165315 -0.007178902197023684 -8.133677665031114e-06
-0.99997297535896 -0.007351766144121753 -9.290360680347391e-06
-0.9999723683290159 -0.007433873552081807 -1.012274350414288e-05
-0.9999722944726533 -0.007443801056255472 -1.062692485821371e-05
-0.9999726389773561 -0.007397376593857443 -1.077918399398163e-05
-0.9999732954736585 -0.007308093282893627 -1.05886559954389e-05
-0.9999741703378054 -0.007187388668426989 -1.006708669043821e-05
-0.9999751845096186 -0.007044876024180871 -9.314371191067291e-06
-0.9999762733431243 -0.006888590564615612 -8.416059242844351e-06
-0.9999773857022061 -0.006725178708695761 -7.45095964276851e-06
-0.9999784820987418 -0.006560129387719783 -6.473971813992942e-06
-0.999979532897729 -0.006397949299343213 -5.513833123157406e-06
-0.9999805172848505 -0.006242197443625279 -4.668723704019947e-06
-0.9999814216351822 -0.006095602393316094 -3.992708095437037e-06
-0.9999822383056903 -0.005960122555167347 -3.502637786393585e-06
-0.9999829642354209 -0.005837056520188463 -3.181297052637885e-06
-0.9999836003177601 -0.005727048653944662 -3.040535043204286e-06
-0.9999841511355907 -0.0056300504306888 -3.127215426345368e-06
-0.9999846241149108 -0.005545405493222912 -3.417026175118038e-06
-0.9999850298320049 -0.005471754453564101 -3.883847697374625e-06
-0.9999853819054501 -0.005407028305110524 -4.507592101554291e-06
-0.9999856971359264 -0.005348410545981988 -5.310942690519067e-06
-0.9999859958926168 -0.005292256533956164 -6.279288540059003e-06
-0.9999863025402626 -0.00523399257668548 -7.318569962553169e-06
-0.9999866463372964 -0.005167889017165933 -8.378099510078082e-06
-0.9999870610997728 -0.005086997598806807 -9.405774724698558e-06
-0.9999875849274397 -0.004982959313365396 -1.036665166406049e-05
-0.9999882594918789 -0.004845694329675673 -1.117432053082854e-05
-0.9999891276392955 -0.004663096177690128 -1.171487569533455e-05
-0.9999902289781079 -0.004420611466525756 -1.194041092414607e-05
-0.999991591381251 -0.00410085691963517 -1.180327129951264e-05
-0.9999932171298948 -0.003683146168097813 -1.13360921670279e-05
-0.9999950612244846 -0.00314283557723019 -1.054387258863247e-05
-0.9999969971976953 -0.002450613655680629 -9.396942025204863e-06