# OOMMF: rectangular mesh v1.0
# Segment count: 1
# Begin: Segment
# Begin: Header
# Title: 
# Desc: time = 8.547293739256668e-11
# Desc: stepsize = 4.736735084385704e-13
# Desc: step = 160
# meshunit: m
# valueunit: (none)
# valuemultiplier: 800000.0000000002
# xmin: 0
# ymin: 0
# zmin: 0
# xmax: 4e-07
# ymax: 1e-07
# zmax: 4e-09
# ValueRangeMaxMag: 1
# ValueRangeMinMag: 0.9999999999999996
# meshtype: rectangular
# xbase: 2e-09
# ybase: 2e-09
# zbase: 1e-09
# xstepsize: 4e-09
# ystepsize: 4e-09
# zstepsize: 2e-09
# xnodes: 100
# ynodes: 25
# znodes: 2
# End: Header
# Begin: Data Text
-0.9446820324153656 0.3279790108710944 -0.002371931616258052
-0.951430020327506 0.3078645368009742 0.0005860033470945147
-0.9596290598436731 0.281266469444149 0.001113853657924943
-0.9675689882217758 0.2526043551519703 0.001137009123000368
-0.9745380830020181 0.2242195529408703 0.001056814906887684
-0.9803390288007326 0.1973182176793303 0.0009537200261006151
-0.9850148339144101 0.1724675551914236 0.0008481596899616349
-0.9887043420763267 0.1498771697765045 0.0007469532796804761
-0.9915714384905262 0.1295594699906507 0.0006527676233244945
-0.9937730414259073 0.111421816038055 0.0005666091097517197
-0.9954465997246015 0.09531961115318117 0.0004886986139450875
-0.9967069660614527 0.08108667196962237 0.0004188477820058705
-0.9976474583515713 0.06855232780706519 0.000356646719141504
-0.9983425405357673 0.05755068035095623 0.0003015754155715152
-0.9988508892634065 0.04792532715951251 0.0002530501052645147
-0.9992183052681426 0.03953143201181381 0.0002104760221443457
-0.9994802599618254 0.03223631384547621 0.0001732521207047658
-0.9996640301721202 0.02591923910014366 0.0001407995146670547
-0.9997904451398404 0.02047078736866693 0.0001125681415537614
-0.9998752938546271 0.01579205455357916 8.80460085396395e-05
-0.9999304484946163 0.0117937998564157 6.677051475004745e-05
-0.9999647551772828 0.008395598023877019 4.834312613984319e-05
-0.999984736267763 0.005525050287009711 3.241633110975913e-05
-0.9999951417609323 0.00311706657598404 1.872145795421061e-05
-0.9999993804107478 0.001113161443534812 7.051300505587143e-06
-0.9999998546774956 -0.0005391079252786847 -2.762620214287784e-06
-0.9999982200922295 -0.001886715467412016 -1.082208783420128e-05
-0.999995584436363 -0.002971667997019097 -1.723634719795859e-05
-0.9999926599275004 -0.003831396842268932 -2.212146056543247e-05
-0.9999898782902511 -0.004499184498278788 -2.561052000713711e-05
-0.9999874770503862 -0.005004494362929779 -2.79029440497605e-05
-0.9999855635431311 -0.005373253157868611 -2.925452905433322e-05
-0.9999841614219335 -0.005628144374070306 -2.993621077821155e-05
-0.9999832435943846 -0.005788921972517687 -3.021339693975997e-05
-0.9999827553913542 -0.005872648463440344 -3.033050342251675e-05
-0.9999826298081862 -0.005893993339113589 -3.040431743075828e-05
-0.9999827965615879 -0.005865633289054602 -3.044640838330081e-05
-0.9999831882100285 -0.005798480202561661 -3.040801122281812e-05
-0.9999837435631208 -0.005701903263338654 -3.014402230799916e-05
-0.99998440907544 -0.005583971048508157 -2.955287632108751e-05
-0.9999851395150452 -0.005451598486053583 -2.868835955576259e-05
-0.999985898237999 -0.00531060815200343 -2.768027660963528e-05
-0.9999866575248189 -0.005165661959798908 -2.662437930010395e-05
-0.9999873975677892 -0.005020363431756152 -2.56244559684818e-05
-0.9999881043253075 -0.004877559823316925 -2.486056534668463e-05
-0.9999887681258819 -0.004739517770385213 -2.435948937061389e-05
-0.999989382919578 -0.004607979764312912 -2.388750399427911e-05
-0.9999899457369313 -0.004484181609121007 -2.324533358055492e-05
-0.9999904561380133 -0.004368881962460152 -2.243404174798994e-05
-0.9999909158169288 -0.004262372087629201 -2.162883111749353e-05
-0.9999913285431651 -0.004164420068931547 -2.107047067547431e-05
-0.9999916998223242 -0.004074291846984708 -2.079431660272553e-05
-0.9999920365680013 -0.003990786442679877 -2.059489524632648e-05
-0.9999923471407979 -0.003912192341561732 -2.027116674136014e-05
-0.9999926413077879 -0.003836266473050035 -1.974388427281539e-05
-0.9999929304538513 -0.003760143162403774 -1.912372575090634e-05
-0.9999932280034075 -0.003680162972237669 -1.865000843004231e-05
-0.9999935491593283 -0.003591838258857991 -1.837530438265406e-05
-0.9999939101697934 -0.003489884653432684 -1.812270602475903e-05
-0.9999943282585347 -0.003367957259516663 -1.773864390400919e-05
-0.9999948216548504 -0.003218131399044639 -1.714006319711035e-05
-0.9999954074141302 -0.003030657900413145 -1.622768957324676e-05
-0.9999960968648874 -0.002793927914497514 -1.489292944450642e-05
-0.9999968894626078 -0.002494171807929658 -1.311872178776554e-05
-0.9999977632579944 -0.002115031480025779 -1.099300428138049e-05
-0.999998659878696 -0.00163712174834918 -8.555281787072439e-06
-0.9999994618285212 -0.001037453569511358 -5.723509399604626e-06
-0.9999999583125774 -0.0002887377294611417 -2.316580360612087e-06
-0.9999997942914656 0.0006414150715792993 1.931972849490988e-06
-0.9999983954837769 0.001791361367639911 7.370334194684547e-06
-0.9999948593628122 0.003206406164613916 1.440335507276e-05
-0.9999877986750482 0.004939833271757794 2.341533887868515e-05
-0.9999751196473936 0.00705399717387874 3.478579294548332e-05
-0.9999537103144878 0.009621581827416719 4.890222791436721e-05
-0.9999190079598425 0.01272686707240897 6.61447323559311e-05
-0.9998644053264505 0.01646703985860625 8.694526073920773e-05
-0.9997804449463727 0.02095350569024846 0.0001118128843004095
-0.9996537422523296 0.02631303134945337 0.0001413581097067777
-0.9994655690707099 0.0326886089177278 0.0001763212556393967
-0.9991900260309455 0.04023983765707854 0.0002175904646991514
-0.9987917391135663 0.04914255813125986 0.0002661931866539089
-0.998223038585379 0.05958742077554518 0.0003232996916087604
-0.9974206217551747 0.07177709271469251 0.0003902037246155319
-0.9963017839536944 0.08592168529351965 0.0004682809058794478
-0.9947604082780127 0.1022321753848981 0.0005589621031322587
-0.9926630521120335 0.1209116393676784 0.0006636543096222439
-0.989845619324735 0.142144418642272 0.0007836788128352644
-0.9861112221341953 0.1660837465441927 0.0009201710970455452
-0.9812298686489385 0.1928387705537428 0.00107398440753163
-0.9749404692983399 0.222462423401242 0.001245591738389218
-0.9669553510533758 0.2549417381164534 0.001435003625007117
-0.9569670504282715 0.2901919522723734 0.001641715859087812
-0.9446569286884349 0.3280545838278546 0.001864701173384501
-0.929705644227491 0.368297427093923 0.002102447987830304
-0.911807781961245 0.4106105596434974 0.002353096718794331
-0.890699082924266 0.4545858614795663 0.002614999187662952
-0.8662206190206693 0.4996533670661501 0.002889976281404074
-0.8384911657893286 0.5449057662261942 0.003204813051742092
-0.8084427179182619 0.5885628888297113 0.003754695374835383
-0.7800982509918729 0.6256315263069095 0.005649078713155496
-0.9260226677223797 0.3774495184446165 -0.003725572473301948
-0.9371980954078223 0.3487972421245291 -0.0004624394798834368
-0.9490054779297156 0.3152595010070622 0.0002233476434401271
-0.9596022534161895 0.2813598937927414 0.0003541235769139526
-0.9685525847448796 0.2488086734420536 0.00036688420209473
-0.9758514394219578 0.2184349940096841 0.0003486690149245451
-0.9816653208560119 0.1906124210078486 0.0003206028528510465
-0.9862188039243119 0.1654460244150368 0.0002894673698123866
-0.9897393715798292 0.1428842529620258 0.0002580702387012669
-0.9924327289561439 0.1227893587039652 0.0002277843929109959
-0.9944741922408336 0.104981147035159 0.0001993342007354182
-0.9960080423628218 0.08926337204029589 0.0001730912325476498
-0.9971503985178711 0.07543911765042666 0.0001492105065278465
-0.9979933139831446 0.06331926195351256 0.0001277129688390589
-0.9986089704913175 0.05272677003146901 0.0001085187493110381
-0.9990534893153455 0.04349847256607793 9.149453711115318e-05
-0.9993701913292692 0.03548541723819742 7.645868782932559e-05
-0.9995922937733361 0.02855244706340845 6.321116745222868e-05
-0.9997450973527492 0.02257737058324199 5.154307402015807e-05
-0.9998477365892686 0.01744998383500835 4.124892712296025e-05
-0.9999145695996305 0.01307105463996561 3.214007471463679e-05
-0.9999562750889521 0.009351327777271505 2.406303086521768e-05
-0.9999807138637359 0.006210605071330201 1.68884745939e-05
-0.9999936027738371 0.003576912111352421 1.054271644524913e-05
-0.999999039917944 0.001385690535671163 4.992886244228163e-06
-0.9999999114406953 -0.0004208545467038906 2.269081130738881e-07
-0.9999982055983394 -0.001894409218184434 -3.71680897661993e-06
-0.9999952533074168 -0.003081122539094287 -6.821587172679917e-06
-0.9999919114379866 -0.004022061158899988 -9.090405937329282e-06
-0.9999887011000526 -0.004753689177988923 -1.055594725804873e-05
-0.9999859110996675 -0.005308245836580476 -1.13272347558227e-05
-0.9999836744934026 -0.005714071453085363 -1.158019956734097e-05
-0.9999820241371999 -0.005995937780066654 -1.151546545978259e-05
-0.9999809319810155 -0.006175398437195099 -1.133670652583004e-05
-0.9999803366473916 -0.006271059905622642 -1.123519095465779e-05
-0.9999801615900602 -0.006298912528099131 -1.128185892670763e-05
-0.9999803259752045 -0.006272761069451512 -1.144940412371956e-05
-0.9999807519672644 -0.006204478958202301 -1.165508870153929e-05
-0.9999813687934683 -0.006104254946842922 -1.172539360342393e-05
-0.99998211446579 -0.00598085407407417 -1.153567801045205e-05
-0.9999829365969607 -0.005841779805592378 -1.111851593286641e-05
-0.9999837927306676 -0.005693343827320247 -1.058547674279301e-05
-0.9999846506840482 -0.005540604292213678 -1.001892300745101e-05
-0.9999854873548842 -0.005387484489012273 -9.512859537721788e-06
-0.9999862863119228 -0.005237089150155941 -9.237008597408004e-06
-0.9999870362096019 -0.005091888449390395 -9.206223553771009e-06
-0.9999877299002484 -0.00495378286430557 -9.180449058707901e-06
-0.9999883637914162 -0.004824127016992217 -8.960446654937239e-06
-0.9999889372117357 -0.004703762437737246 -8.54821789621042e-06
-0.9999894519637662 -0.00459302680961523 -8.119864958975393e-06
-0.9999899122516513 -0.004491695925317962 -7.915098750030235e-06
-0.9999903242886747 -0.004399007338113915 -7.966784123417372e-06
-0.9999906959266955 -0.004313698514570683 -8.072679064410766e-06
-0.9999910367032571 -0.004233963685905495 -8.040601573592272e-06
-0.9999913578235656 -0.004157429170643827 -7.80207762462806e-06
-0.9999916724407594 -0.004081052950677826 -7.479728264950104e-06
-0.9999919961617368 -0.004000944743070231 -7.323055780934626e-06
-0.9999923467744591 -0.003912331508919843 -7.394164059924378e-06
-0.9999927434823543 -0.003809583428933025 -7.532050875888801e-06
-0.9999932069185133 -0.003685927153172739 -7.605808660331395e-06
-0.9999937592485382 -0.003532903454314595 -7.56036498470649e-06
-0.9999944217726625 -0.003340115238918707 -7.331340637033216e-06
-0.9999952098926074 -0.003095180914993592 -6.851520774107088e-06
-0.9999961262989652 -0.002783406053819382 -6.148416050814661e-06
-0.9999971503267807 -0.002387322683742081 -5.359193672199686e-06
-0.9999982210725952 -0.001886221257095202 -4.58407462769059e-06
-0.9999992118018853 -0.001255540141980828 -3.815696665947913e-06
-0.9999998913609224 -0.0004661216344638133 -2.960511714806951e-06
-0.9999998665383555 0.000516642834256628 -1.858086358169912e-06
-0.999998497083843 0.001733732958356568 -2.892988543637161e-07
-0.9999947720895705 0.003233541329659524 1.999215446405361e-06
-0.9999871323676921 0.00507297465126488 5.217934778390389e-06
-0.9999732184832025 0.007318621813437477 9.544448919805994e-06
-0.9999495165767511 0.01004808782632997 1.513128039090558e-05
-0.9999108666342514 0.01335134071087781 2.208986746603855e-05
-0.9998497872948195 0.01733210643403156 3.054607739529905e-05
-0.9997555597218027 0.02210925489918827 4.06589119153764e-05
-0.9996130031977952 0.02781799897090449 5.264161152860351e-05
-0.9994008649782783 0.03461078762187614 6.678968674981843e-05
-0.9990897438791927 0.04265766875142721 8.349911435456814e-05
-0.9986394755856204 0.05214582571535622 0.0001032595771159799
-0.9979959354089518 0.06327793346255632 0.0001266645925295588
-0.9970872665944733 0.0762689907835496 0.0001544021369705945
-0.9958196417077999 0.09134115246925516 0.000187228567871559
-0.9940727946083434 0.108716272752086 0.0002259611741349857
-0.9916957414781867 0.1286059200187726 0.0002714224641890361
-0.9885032988279527 0.1511989516117064 0.0003244037232515509
-0.9842741577914428 0.1766472010073585 0.0003855907310546654
-0.9787513247542831 0.2050503275298239 0.0004554905567450305
-0.9716455745693414 0.2364415189582673 0.0005343524317107949
-0.9626421780330344 0.2707760145664674 0.0006220991201813988
-0.9514106003899838 0.3079242659010563 0.0007182860612272573
-0.9376164502104839 0.347670413503861 0.0008221123675123021
-0.9209352854577975 0.3897144216186756 0.0009325133703598949
-0.9010701566970702 0.4336720805427147 0.001048459665400662
-0.8777815387600065 0.4790597052463624 0.001170051871768077
-0.8509574848441115 0.5252329567229838 0.001303901765983242
-0.8208149688661049 0.5711922195626155 0.001495057345969114
-0.7885845516201826 0.6149229996270817 0.002027184162097058
-0.7593995651134241 0.6506097280544825 0.004391157753277714
-0.900697010024472 0.4344299144570295 -0.003942785542408692
-0.9164993257842035 0.4000355963100606 -0.0007124057510463879
-0.9330670447269809 0.359702502009983 9.602908446625841e-06
-0.9475566794638662 0.3195877158012587 0.0001763869197203849
-0.95951358305756 0.28166227374986 0.0002178855236028959
-0.9691005848564469 0.2466657794564989 0.000222881157075853
-0.9766476959002337 0.2148469973233235 0.0002140885706466824
-0.9825097403674072 0.1862110909370734 0.0001992365290978193
-0.9870144823439655 0.1606311881952044 0.0001817203071941596
-0.9904446752250905 0.1379105458034154 0.000163323202639686
-0.9930349254584365 0.1178202689286319 0.0001450839127904895
-0.9949751268236771 0.1001223287457566 0.0001276273260317715
-0.9964164148112441 0.08458318924754948 0.0001113167534344574
-0.9974776389527312 0.0709813391444106 9.634599298829187e-05
-0.9982514112844434 0.05911102279693193 8.277993511270561e-05
-0.9988093680958257 0.04878361629369882 7.06068411709846e-05
-0.9992065629311732 0.03982764147324914 5.974905663181764e-05
-0.9994850450017596 0.032088039957211 5.00952563628464e-05
-0.9996767299654805 0.02542506326771608 4.151332089746865e-05
-0.9998056786606099 0.01971303556641158 3.386375980672139e-05
-0.9998898940698536 0.01483910398932622 2.701426242293867e-05
-0.9999427314002313 0.01070203180372141 2.085944149315648e-05
-0.9999739996345252 0.007211090105205127 1.531093850106485e-05
-0.9999908190494445 0.004285056604753873 1.033027140713881e-05
-0.999998286399286 0.001851259975018988 5.915735465403503e-06
-0.9999999879534233 -0.0001552057040251417 2.083832923994155e-06
-0.9999983939170183 -0.001792250587844524 -1.101843786552967e-06
-0.9999951593798533 -0.003111463304958772 -3.600430596160572e-06
-0.9999913527346107 -0.004158656863688023 -5.393794361489514e-06
-0.9999876274508244 -0.004974424898389973 -6.496236436555863e-06
-0.9999843501302688 -0.005594590739888242 -6.999773382861525e-06
-0.9999816949567066 -0.006050595142835665 -7.066081476560395e-06
-0.9999797120739626 -0.006369881717461311 -6.883307022664724e-06
-0.9999783758991254 -0.006576297590364763 -6.644532489226738e-06
-0.9999776189299479 -0.006690410789594895 -6.531311190693672e-06
-0.9999773540440235 -0.006729885249149442 -6.606527663296545e-06
-0.9999774880208835 -0.006709948190935062 -6.835078134271246e-06
-0.9999779304888928 -0.006643680033263904 -7.125044177050881e-06
-0.999978598950089 -0.006542292302205181 -7.297200125769616e-06
-0.9999794209879433 -0.00641541490815489 -7.2231089929645e-06
-0.9999803353036891 -0.00627128040360159 -6.929679118872938e-06
-0.9999812921666134 -0.006116802615322471 -6.523405798150675e-06
-0.9999822537401269 -0.005957530341546797 -6.086494494062912e-06
-0.999983192654601 -0.005797790581706736 -5.716789902318466e-06
-0.9999840893188231 -0.005641017467294718 -5.580053817613087e-06
-0.9999849301484146 -0.005489940236633687 -5.680490762002311e-06
-0.9999857065051264 -0.005346658029446804 -5.775691870497177e-06
-0.9999864138854885 -0.005212678033304183 -5.671054246366504e-06
-0.9999870511663654 -0.005088955760233499 -5.372788150967763e-06
-0.9999876201156389 -0.004975900908736817 -5.060283327450438e-06
-0.9999881253007302 -0.004873318462328142 -4.969489740694776e-06
-0.9999885736548078 -0.004780432359892223 -5.125911404948166e-06
-0.9999889740653043 -0.004695925833591348 -5.327771006877871e-06
-0.9999893374097645 -0.004617904041715898 -5.388971586329863e-06
-0.9999896765697766 -0.004543866891841958 -5.248136689836482e-06
-0.9999900068244134 -0.004470595704923832 -5.035089721100618e-06
-0.9999903464728046 -0.004393965886372329 -4.998903514631801e-06
-0.9999907165924873 -0.004308909586333772 -5.198119025400589e-06
-0.9999911402862158 -0.004209432159515825 -5.474281677972578e-06
-0.9999916428505208 -0.00408829996610903 -5.701157624248902e-06
-0.9999922520141603 -0.003936480363994705 -5.830222068183079e-06
-0.9999929953597322 -0.003742886279690434 -5.811006967372485e-06
-0.9999938948509901 -0.003494313876422598 -5.592856086149336e-06
-0.9999949594046027 -0.003175080815555092 -5.21545893760343e-06
-0.9999961731374185 -0.002766529821493455 -4.823355929023055e-06
-0.9999974765449505 -0.002246526923812425 -4.52890635860016e-06
-0.9999987378188177 -0.001588817772870144 -4.342360390293118e-06
-0.9999997094923574 -0.000762232023230063 -4.188431438954165e-06
-0.9999999634807196 0.00027022787683164 -3.931142118714487e-06
-0.9999987950816016 0.001552360745170256 -3.385438167189809e-06
-0.9999950831407911 0.00313587129466116 -2.337734441894493e-06
-0.9999870888590893 0.0050815464908511 -6.205109413344453e-07
-0.9999721700391332 0.007460505588305717 1.895711403155136e-06
-0.9999463791534025 0.01035561634289047 5.306425989895408e-06
-0.9999039049220735 0.01386293000259597 9.660857630455098e-06
-0.9998363050480302 0.01809317225993431 1.50158061285437e-05
-0.9997314647349294 0.02317321640978563 2.145175642382291e-05
-0.9995722040462088 0.02924735973988586 2.909380525705262e-05
-0.9993344457073017 0.03647826980781687 3.814063049689097e-05
-0.9989848512696677 0.04504735890303315 4.888333524664113e-05
-0.9984778435960772 0.05515425677883956 6.170008935541075e-05
-0.9977519656960697 0.06701499093279906 7.707078150006667e-05
-0.9967255883272788 0.08085847166357236 9.557128840471521e-05
-0.9952920967539864 0.09692073178480351 0.0001178530902150296
-0.9933148458847245 0.1154365454439354 0.0001446408503616315
-0.9906223967609439 0.136628093082899 0.0001766808811591038
-0.9870047899863645 0.1606906918424384 0.0002147071737541525
-0.9822118193045495 0.1877761293349999 0.0002593654022389236
-0.9759543596562817 0.2179747486828884 0.0003111342608573535
-0.967909635197441 0.2512982312257863 0.0003702360699221867
-0.9577308494265957 0.2876654818971057 0.0004365564303064022
-0.9450608730903027 0.326893998825321 0.0005095937455985056
-0.9295490789999078 0.3686979297890958 0.0005884723082948521
-0.910870697249445 0.4126913146911027 0.0006720646090929672
-0.8887508467243467 0.4583899603747925 0.0007593907771102676
-0.8630041748808979 0.5051960707503578 0.0008510208808481994
-0.8336259385555325 0.5523285993224434 0.0009554778462950208
-0.80104628111205 0.5986013622752933 0.001124543781841108
-0.7669249135309877 0.6417346947559137 0.00166088892487688
-0.7370224573629026 0.6758560407785895 0.00406318666041857
-0.8717721951553088 0.4898956423485876 -0.003936922904802292
-0.8919989237970213 0.4520367908643697 -0.0008121884001543826
-0.9135825860774467 0.4066532306486132 -9.175559987753951e-05
-0.9325317236231706 0.3610880440648708 9.417963737039193e-05
-0.9481167452129047 0.3179223388690495 0.0001545798191072959
-0.96054430694694 0.2781269564141409 0.0001746643307408958
-0.9702741967090547 0.2420081646341367 0.0001773443388291097
-0.9777954307687227 0.2095616049737778 0.0001711391887907496
-0.9835515618768338 0.1806275158395542 0.0001601601460384141
-0.9879193052104481 0.1549691093743721 0.0001467386072430232
-0.9912075382683977 0.1323162823401436 0.0001323162334058272
-0.993664048087995 0.1123910390447112 0.0001178126831238743
-0.9954846873897049 0.09492221234656549 0.0001038068149973394
-0.9968226058942918 0.07965352572597006 9.065062071981141e-05
-0.9977965711308618 0.06634754308332268 7.852580091773843e-05
-0.9984980582750049 0.05478707022536119 6.750678256758779e-05
-0.9989970922068361 0.04477506501068004 5.758103397571742e-05
-0.9993469623526349 0.03613373031162741 4.868600525109427e-05
-0.9995879779612822 0.02870318199388958 4.072714235141726e-05
-0.9997504311095516 0.02233997242020487 3.359359535765297e-05
-0.9998569205651476 0.01691560402499683 2.717442130290186e-05
-0.9999241660958429 0.01231509644401795 2.138006247306396e-05
-0.9999644189898249 0.008435667966530178 1.613381786077297e-05
-0.9999865549121937 0.005185543825732382 1.140497264525444e-05
-0.99999691775021 0.002482828681941322 7.198294008506473e-06
-0.9999999675920487 0.0002545651209626416 3.535558243587812e-06
-0.9999987766827234 -0.001564171608725433 4.843207763547913e-07
-0.9999954062927465 -0.003031070727801006 -1.909807402795284e-06
-0.9999911915394244 -0.004197240810467903 -3.625008338521082e-06
-0.999986954789798 -0.00510785947266992 -4.672609139111442e-06
-0.9999831641321333 -0.005802708493272366 -5.140874610624527e-06
-0.9999800498314085 -0.006316637733420249 -5.18824276419302e-06
-0.9999776884260613 -0.006680016846294184 -5.000391110567663e-06
-0.9999760620682381 -0.006919195600957002 -4.768063481704147e-06
-0.9999750999254278 -0.00705687659743975 -4.671086992510074e-06
-0.9999747055663325 -0.007112538558529521 -4.772786739656094e-06
-0.9999747737542279 -0.007102945150182878 -5.037263845648306e-06
-0.9999752014564486 -0.007042474231151041 -5.370094382988095e-06
-0.9999758940881076 -0.006943429369915291 -5.592352343667805e-06
-0.9999767683317707 -0.006816360146941025 -5.576307137850209e-06
-0.9999777534760232 -0.006670271694877792 -5.344312039982501e-06
-0.9999787920288148 -0.006512715841808699 -4.995550480891485e-06
-0.9999798400384661 -0.006349763409716968 -4.613442444403034e-06
-0.9999808654193145 -0.006186176259524732 -4.303990264726694e-06
-0.9999818449998371 -0.006025749149847865 -4.231358927615341e-06
-0.9999827626221663 -0.005871493785051705 -4.389992679164826e-06
-0.9999836079136064 -0.005725721221242598 -4.536793641494805e-06
-0.9999843752332888 -0.00559010457689492 -4.484202126949241e-06
-0.9999850627798603 -0.005465729516917215 -4.243365574497909e-06
-0.9999856720567336 -0.005353098662780931 -3.99359969028145e-06
-0.9999862077742959 -0.005252070588346264 -3.964535549992326e-06
-0.9999866774156767 -0.005161876958217913 -4.17412189142198e-06
-0.9999870907938349 -0.005081163855356135 -4.422341449883159e-06
-0.9999874600419199 -0.005007967489725871 -4.531114256354796e-06
-0.9999877996686762 -0.004939685620671739 -4.446108681584288e-06
-0.9999881270691602 -0.004872956209824739 -4.29997738214502e-06
-0.9999884633018107 -0.004803461715923449 -4.338978784920791e-06
-0.9999888329559961 -0.004725880021419632 -4.618171926114238e-06
-0.999989263466706 -0.004633888921305453 -4.977866505432452e-06
-0.9999897854534305 -0.004519840797654947 -5.288212208951711e-06
-0.9999904331710537 -0.004374189762611984 -5.503479364138369e-06
-0.9999912418628039 -0.00418523194965436 -5.587019722536239e-06
-0.999992241989809 -0.003939026519083152 -5.502424523402873e-06
-0.9999934513609006 -0.003619006393536967 -5.295030869874956e-06
-0.9999948625257439 -0.003205447865730533 -5.10864118314617e-06
-0.9999964223367176 -0.002674937045224162 -5.056600284376381e-06
-0.9999980005951041 -0.00199969478645421 -5.153102535222244e-06
-0.9999993424805864 -0.001146738864503239 -5.326448147386015e-06
-0.9999999970263354 -7.692612620503439e-05 -5.449796675024822e-06
-0.9999992111336973 0.001256066610819594 -5.352776775623829e-06
-0.999995774935484 0.002906903464698415 -4.840219408891078e-06
-0.9999877989710109 0.004939827420504308 -3.764090384032944e-06
-0.9999723972973843 0.007429982453633652 -2.015016902142515e-06
-0.9999452413881115 0.01046490444482009 4.811111330886364e-07
-0.999899939765716 0.01414603981478755 3.751728189100191e-06
-0.9998271849642629 0.01859032396530362 7.829581466711305e-06
-0.9997135947430627 0.0239317429967499 1.276873637482244e-05
-0.9995401610894016 0.03032269811444243 1.866637378689549e-05
-0.9992802074253985 0.03793502850692016 2.56910837808911e-05
-0.9988967495870322 0.04696043549076585 3.410247592493692e-05
-0.9983391664254411 0.05760995420141121 4.424778137192423e-05
-0.9975391208483727 0.07011204729283262 5.658146824400399e-05
-0.9964057426622608 0.0847088593614366 7.166137257173536e-05
-0.9948202194541592 0.1016500016775809 9.013393175772775e-05
-0.9926301288174122 0.1211833926530243 0.0001127343340565494
-0.9896441150932994 0.1435426967649111 0.000140237857495056
-0.9856278179890551 0.168931271024465 0.0001734248908443549
-0.9803022428247076 0.1975030818587865 0.0002130003030120396
-0.9733459204265466 0.229341779548877 0.0002595040514398622
-0.9644020660696837 0.2644400818003105 0.0003132059546548426
-0.9530914357228734 0.3026823008891842 0.00037400553600127
-0.9390307106072124 0.3438329968685062 0.0004413625889816119
-0.9218554476775775 0.3875335715565039 0.0005142993611503797
-0.9012468710430854 0.4333055821523176 0.0005915324918087408
-0.8769649937365912 0.4805537933220186 0.000671925887780858
-0.8489006603205874 0.5285518870599806 0.0007560374353154578
-0.8171858638756917 0.5763736084837343 0.0008528336169199837
-0.7824748316734287 0.622681385011254 0.001015164078069926
-0.7467421791722623 0.6651118227559444 0.001543073337654228
-0.7160008360392677 0.6980885427308662 0.003897345117447867
-0.841266896964759 0.5406060370028816 -0.003888550799964931
-0.8654789795405898 0.5009444531606438 -0.0008892811492242459
-0.8918601468017944 0.4523112254577339 -0.0001840423975324918
-0.9153691638327204 0.4026155656402131 1.443595633894197e-05
-0.9348698479988719 0.354990646184537 9.178262782286494e-05
-0.95048227453053 0.3107787470910194 0.0001271212251072776
-0.9627220937878089 0.2704924212442706 0.0001420641708419075
-0.9721823287167504 0.2342253159436637 0.0001452651599706687
-0.9794158481345459 0.2018528584040914 0.0001413399642959483
-0.9848974211892744 0.1731388229323578 0.0001331477155638051
-0.9890179726558892 0.1477952459928702 0.0001225787161732471
-0.9920914534713094 0.1255170731365829 0.0001109072131732638
-0.9943658913924448 0.1060021897790625 9.898157535340861e-05
-0.9960349666687773 0.08896256258770424 8.735534463099909e-05
-0.9972485874186615 0.07412994712537897 7.635883900352905e-05
-0.9981219477890866 0.06125824811876551 6.617506453350613e-05
-0.9987430060829374 0.05012389216821271 5.687114199310884e-05
-0.9991785202560753 0.04052508250724213 4.844233830032048e-05
-0.9994788496860921 0.03228044861112423 4.083662789892457e-05
-0.9996817366996141 0.02522744844354509 3.39745637704648e-05
-0.9998152647232523 0.01922070902241185 2.776775080261115e-05
-0.9999001606819355 0.01413039907179656 2.214297014629676e-05
-0.9999515788904574 0.009840710557861442 1.703517968484618e-05
-0.9999804780040542 0.006248476335633582 1.242037677734343e-05
-0.9999946800746756 0.003261863473514564 8.308232140016673e-06
-0.9999996805766042 0.0007992649020305056 4.722901599991761e-06
-0.9999992658260255 -0.001211752618497614 1.732361788972203e-06
-0.9999959802957092 -0.00283538216884747 -6.16558230525837e-07
-0.9999914783140943 -0.004128352443022923 -2.301707597160788e-06
-0.9999867865916937 -0.005140683894903671 -3.33333698120296e-06
-0.999982498410477 -0.00591632135047769 -3.797059078665902e-06
-0.9999789157994032 -0.006493684766304172 -3.847791974210365e-06
-0.9999761519360033 -0.006906196189274881 -3.668515274264031e-06
-0.9999742033063819 -0.00718280654663152 -3.446717378667252e-06
-0.9999729999107217 -0.007348431006447577 -3.360754739497044e-06
-0.9999724385908151 -0.007424422310906728 -3.476687107925953e-06
-0.9999724036632247 -0.007429124972318186 -3.760025092810907e-06
-0.9999727803663857 -0.007378245683597012 -4.117271638593154e-06
-0.9999734625728748 -0.007285199440583196 -4.373293157685221e-06
-0.9999743563541567 -0.007161467356828806 -4.403030994650443e-06
-0.9999753816997652 -0.007016835225173537 -4.222701819276521e-06
-0.9999764733482027 -0.006859499597610484 -3.919311386606774e-06
-0.9999775811224402 -0.006696061508669529 -3.575625358352843e-06
-0.9999786680312042 -0.00653172807145721 -3.307457852325144e-06
-0.9999797070779618 -0.006370668844400266 -3.278448588696957e-06
-0.9999806793124008 -0.006216187724911706 -3.475267565212592e-06
-0.9999815724450608 -0.006070811884348932 -3.656209026099788e-06
-0.9999823795006688 -0.005936385677683851 -3.642283066072155e-06
-0.9999830977699538 -0.005814134717719935 -3.448267964966083e-06
-0.9999837282303587 -0.005704670363113285 -3.249642496234707e-06
-0.9999842754415739 -0.005607928219391434 -3.267457861922004e-06
-0.9999847471798807 -0.005523168949457392 -3.513593639998487e-06
-0.9999851539670624 -0.00544902111309619 -3.791988854495565e-06
-0.9999855089877446 -0.005383474624887437 -3.934973629185424e-06
-0.9999858281821608 -0.005323853836496911 -3.894208395672714e-06
-0.9999861308690925 -0.00526669298576735 -3.802077301932823e-06
-0.9999864406925499 -0.005207534524494505 -3.901380381871767e-06
-0.9999867857092632 -0.005140854872832703 -4.246427175110408e-06
-0.9999871978097129 -0.005060058777221671 -4.674318792585097e-06
-0.999987713228257 -0.004957153119707352 -5.046641874730847e-06
-0.9999883732640052 -0.004822168443934954 -5.320348630786336e-06
-0.9999892217091512 -0.004642890859859162 -5.476261748189253e-06
-0.9999902989497217 -0.004404767450137153 -5.491447689058505e-06
-0.9999916338720075 -0.004090495893703636 -5.416306249360799e-06
-0.9999932307092149 -0.0036794709750822 -5.39350318144499e-06
-0.9999950474799622 -0.00314721860046028 -5.534306362898864e-06
-0.9999969626192114 -0.002464694325268741 -5.851009516891765e-06