# OOMMF: rectangular mesh v1.0
# Segment count: 1
# Begin: Segment
# Begin: Header
# Title: 
# Desc: time = 4.3299693482605906e-11
# Desc: stepsize = 5.468366355249509e-13
# Desc: step = 80
# meshunit: m
# valueunit: (none)
# valuemultiplier: 800000.0000000002
# xmin: 0
# ymin: 0
# zmin: 0
# xmax: 4e-07
# ymax: 1e-07
# zmax: 4e-09
# ValueRangeMaxMag: 1
# ValueRangeMinMag: 0.9999999999999996
# meshtype: rectangular
# xbase: 2e-09
# ybase: 2e-09
# zbase: 1e-09
# xstepsize: 4e-09
# ystepsize: 4e-09
# zstepsize: 2e-09
# xnodes: 100
# ynodes: 25
# znodes: 2
# End: Header
# Begin: Data Text
-0.9442783049394459 0.3291383752972159 -0.002532336351167607
-0.9510911890687518 0.3089099400279427 0.0004461252292348022
-0.959358112046482 0.2821896931970237 0.000994939183437907
-0.9673573016817217 0.2534142413282042 0.001035941653008833
-0.9743747975478481 0.2249284610937676 0.0009702028546175307
-0.9802140344268225 0.1979385630409227 0.0008786205018048927
-0.984919627836438 0.1730107364600367 0.0007821586076172561
-0.9886320940139717 0.1503532813232122 0.0006880994782012597
-0.9915167846386487 0.1299773304024461 0.0005994675039797434
-0.9937318180644482 0.1117891134682154 0.0005175676928965246
-0.9954155945610341 0.09564307598477695 0.0004428553636267963
-0.9966837086412927 0.0813722558201328 0.0003753821795764414
-0.9976300576049324 0.06880529744430931 0.000314971076003991
-0.9983295537223942 0.05777572034320583 0.0002613489394686596
-0.9988412244570091 0.04812652534410893 0.0002142043998718058
-0.9992111416393761 0.03971227060728028 0.0001731674012083353
-0.9994749845613231 0.03239963332874696 0.0001378270858621038
-0.9996601862974288 0.02606722729151745 0.0001076713603459165
-0.9997876902188337 0.0206050417122314 8.211532192420474e-05
-0.9998733673349711 0.01591369336726768 6.047840862978746e-05
-0.9999291476264773 0.01190369502650953 4.209158747612028e-05
-0.9999639205417448 0.008494522721729864 2.64293870335262e-05
-0.9999842425686287 0.005613772606413879 1.309842170421756e-05
-0.999994891674136 0.003196345087200488 1.927649526345954e-06
-0.9999992995360094 0.001183586240547942 -7.14851149834695e-06
-0.9999998860265769 -0.0004772240333415392 -1.428477225321045e-05
-0.999998319317102 -0.001833295744142793 -1.974044570573584e-05
-0.9999957169691587 -0.002926682539013355 -2.393018052200978e-05
-0.9999928003809817 -0.003794528244632932 -2.723237789405788e-05
-0.9999900103367789 -0.004469714117268847 -2.97045124365435e-05
-0.9999875913876419 -0.004981575125793911 -3.130508769935537e-05
-0.9999856556722233 -0.005356063202430812 -3.219883899060811e-05
-0.9999842306754817 -0.005615811314311926 -3.261359412565813e-05
-0.999983292007447 -0.005780539766143462 -3.264905203349665e-05
-0.9999827856657274 -0.005867480378480128 -3.234531538216997e-05
-0.9999826438672619 -0.00589160035151937 -3.177323364312623e-05
-0.9999827956258862 -0.005865789847146829 -3.101137871749402e-05
-0.9999831730257697 -0.005801099753901175 -3.011574671145881e-05
-0.9999837147195004 -0.005706964812027529 -2.912769129699816e-05
-0.9999843676720758 -0.005591388265893071 -2.808449071993778e-05
-0.9999850876868565 -0.005461105558157846 -2.701836675950706e-05
-0.9999858391171712 -0.005321737634305253 -2.595530824813392e-05
-0.9999865941427689 -0.005177925640661853 -2.491594754197532e-05
-0.9999873318239271 -0.005033450073517231 -2.391694034887413e-05
-0.9999880371034008 -0.004891331353420666 -2.297124416530597e-05
-0.9999886998242806 -0.004753917945324451 -2.208875738026048e-05
-0.999989313853805 -0.004622956359974412 -2.127650057087802e-05
-0.999989876314436 -0.004499649628603387 -2.053918949461602e-05
-0.9999903869688918 -0.004384697779936456 -1.987924457398715e-05
-0.9999908477281538 -0.004278327657654173 -1.929719104918169e-05
-0.9999912623141403 -0.004180304085974494 -1.87915126431236e-05
-0.9999916360307199 -0.004089930507271051 -1.835890018938875e-05
-0.9999919756696225 -0.004006029528426177 -1.799394095728816e-05
-0.999992289495615 -0.003926911815890171 -1.768920633283108e-05
-0.9999925873291495 -0.003850322425698135 -1.74347568229796e-05
-0.9999928806542421 -0.003773373075783999 -1.721805071855134e-05
-0.9999931827468999 -0.003692447688769336 -1.70232291107488e-05
-0.9999935087093775 -0.003603089761851881 -1.683079606055308e-05
-0.9999938753436504 -0.003499857007853806 -1.661661641665932e-05
-0.9999943006513426 -0.003376151279846089 -1.63513769358332e-05
-0.999994802745572 -0.003224007733834344 -1.599926984714249e-05
-0.9999953977459041 -0.003033850069065049 -1.551673024367968e-05
-0.9999960961253321 -0.002794192828406859 -1.485035523926233e-05
-0.9999968966158719 -0.002491297731958882 -1.393684102385513e-05
-0.9999977764676589 -0.002108767034771392 -1.270160540394876e-05
-0.9999986762527028 -0.001627074282783297 -1.105079990903056e-05
-0.9999994766978247 -0.001022998297021381 -8.863422877182325e-06
-0.9999999638066503 -0.0002689806661092294 -6.008243691834084e-06
-0.9999997771692982 0.0006675745720729337 -2.354611959207879e-06
-0.9999983344866749 0.001825107843301023 2.288337866341642e-06
-0.9999947221444733 0.003248940693899241 8.219794587622711e-06
-0.9999875378173759 0.004992390463183663 1.572910719451829e-05
-0.9999746680778453 0.007117764881664604 2.50138347128958e-05
-0.9999529774939159 0.009697498499743502 3.638543162654646e-05
-0.9999178742737536 0.01281569998791062 5.041504959175243e-05
-0.9998627117880754 0.016569640472297 6.775259554298755e-05
-0.9997779796039495 0.02107091774233587 8.901988703674857e-05
-0.9996502231130009 0.02644651655856622 0.0001148566280970824
-0.9994606248470029 0.03283958104987201 0.0001459345971446796
-0.9991831777385424 0.04040969932789124 0.000183097070712189
-0.9987823778241472 0.04933264650706809 0.00022745670132967
-0.9982103979104358 0.05979902104252136 0.0002803316707132004
-0.9974037468408452 0.07201144350323083 0.0003432090094783586
-0.9962794961155074 0.08617999308617962 0.0004176260243802462
-0.994731278584299 0.1025155026547207 0.0005050955305443871
-0.9926253883438462 0.1212207486138457 0.0006070590806638459
-0.989797481890518 0.1424795407418736 0.0007247849155417873
-0.9860504829205727 0.1664443049309 0.0008593533468282567
-0.9811543095178099 0.193223180958682 0.001011560595146066
-0.9748479299522889 0.2228679355933923 0.001181842661407875
-0.9668439023097165 0.2553644280495452 0.001370201973184529
-0.9568351787607674 0.2906268337269858 0.001576135678449862
-0.9445036933842866 0.3284958723820893 0.001798613735937391
-0.9295307883902599 0.3687388883746298 0.002036083206463326
-0.9116117707400375 0.4110459231653263 0.002286590776077029
-0.8904830830854327 0.4550092140749649 0.002548302482982972
-0.8659864408532391 0.5000595127544243 0.002822757897263376
-0.8382412194944217 0.5452905842944052 0.003136338688725483
-0.8081800255535574 0.5889239989279281 0.003683718635942345
-0.7798265410344315 0.62597084498236 0.005573789585542228
-0.9255437079065516 0.3786208753540129 -0.003882975759948688
-0.9367961759546988 0.3498750683639557 -0.0006010440663771068
-0.9486841261522988 0.3162252642892716 0.0001049372632405018
-0.9593508744167403 0.2822159380929123 0.0002530655499433265
-0.9683583261220913 0.2495637671214221 0.0002799467548833123
-0.975702463710168 0.2190995841140986 0.0002730401745172163
-0.9815516728301469 0.1911968855997568 0.0002539710482608164
-0.9861324570209171 0.1659600082257836 0.0002299556182930222
-0.9896739942561928 0.143336469266877 0.0002041350004189874
-0.9923833861571857 0.1231875932765286 0.0001781626634835959
-0.9944370640071798 0.1053323422531389 0.000152984467234257
-0.9959801838473629 0.08957375000573603 0.0001292024868524828
-0.9971295515158114 0.07571423910000705 0.0001071978709316077
-0.9979777537607181 0.06356410456499761 8.723279857333143e-05
-0.9985973903961608 0.0529456992060595 6.949502340902274e-05
-0.9990449062933532 0.04369522039576282 5.407282900295691e-05
-0.9993638706093053 0.03566304028040856 4.097249035322273e-05
-0.9995876873991093 0.02871331218179705 3.006078188325089e-05
-0.9997417940843653 0.02272321975318563 2.109555748414235e-05
-0.9998454237203676 0.01758204986872671 1.37058997699047e-05
-0.999913004145369 0.01319030267837761 7.499074329875117e-06
-0.9999552663398973 0.009458610589503414 2.195591447078245e-06
-0.9999801121719725 0.006306762629564515 -2.379744976154854e-06
-0.9999932920265008 0.003662767192497915 -6.204404963467883e-06
-0.9999989313969616 0.001461889480624036 -9.169567328046996e-06
-0.9999999372949342 -0.0003539535255172436 -1.127070615087955e-05
-0.9999983132014463 -0.001836691300494419 -1.262252825359345e-05
-0.999995401802486 -0.003032522282349657 -1.350891879121048e-05
-0.9999920708344127 -0.003982218828786022 -1.419515008125205e-05
-0.9999888519804132 -0.0047218323278898 -1.464110216690678e-05
-0.9999860422970603 -0.005283464247855445 -1.471743569255551e-05
-0.9999837805367063 -0.005695476540287118 -1.450843894018872e-05
-0.9999821040375202 -0.005982591732533298 -1.417234736444856e-05
-0.999980987886144 -0.006166334180227408 -1.374877573770641e-05
-0.9999803715387539 -0.006265489789280056 -1.322557969154146e-05
-0.9999801776506634 -0.006296359765571254 -1.262733750656391e-05
-0.9999803246246524 -0.006272975349835409 -1.199313441847109e-05
-0.9999807341062886 -0.006207357533150638 -1.134474512308336e-05
-0.9999813351605146 -0.006109764006741145 -1.069469611864128e-05
-0.9999820663841612 -0.005988890460941807 -1.005532548950013e-05
-0.9999828765393304 -0.005852054258519908 -9.438278611429759e-06
-0.9999837242675396 -0.005705359030234643 -8.851942329583626e-06
-0.9999845772407611 -0.005553846566000265 -8.302844946988866e-06
-0.999985411099629 -0.005401622638773535 -7.795743415390241e-06
-0.9999862082706412 -0.005251972458994047 -7.334530036309556e-06
-0.9999869568617538 -0.005107451268436228 -6.921678629807371e-06
-0.9999876496143921 -0.00496996737023193 -6.559139321717395e-06
-0.9999882830494871 -0.004840839256077304 -6.247813567798873e-06
-0.9999888567191577 -0.004720847556424563 -5.988365211845674e-06
-0.9999893726783614 -0.004610259962441437 -5.780611274985178e-06
-0.999989835057315 -0.004508852449495202 -5.624272853610927e-06
-0.9999902498436868 -0.004415901619007965 -5.518296637211655e-06
-0.9999906247383524 -0.004330173849929692 -5.461553932115784e-06
-0.9999909691937702 -0.004249882489937449 -5.452079603023204e-06
-0.9999912944802174 -0.004172641089691199 -5.487726263554414e-06
-0.9999916138791194 -0.004095380380482926 -5.565303548467537e-06
-0.9999919428156244 -0.004014258531338965 -5.681189955925181e-06
-0.999992298988525 -0.003924529226677972 -5.830333625208088e-06
-0.999992702234621 -0.003820398070660992 -6.006807050911591e-06
-0.9999931740784509 -0.003694828552373271 -6.202698879638584e-06
-0.9999937365352077 -0.003539328931143167 -6.408638657409046e-06
-0.9999944098717578 -0.00334367784250014 -6.61213392536415e-06
-0.9999952085373391 -0.003095618864487889 -6.797748633742449e-06
-0.9999961344329559 -0.002780480333878951 -6.946780412696385e-06
-0.9999971659774594 -0.002380753559201558 -7.038403936546186e-06
-0.9999982410773314 -0.001875577951623855 -7.042036842662699e-06
-0.9999992309887614 -0.00124015083394651 -6.913327774777664e-06
-0.999999900952193 -0.000445030226242433 -6.610722231438581e-06
-0.9999998516853443 0.0005446025866938624 -6.108287486883119e-06
-0.999998433850958 0.001769821214856193 -5.338353931200886e-06
-0.9999946239316863 0.00327903804173908 -4.152794826793638e-06
-0.9999868455956238 0.005129193871738707 -2.437231573311808e-06
-0.9999727170735533 0.007386819917868608 -1.892596638893557e-07
-0.9999486975712272 0.01012927531686879 2.67598754323914e-06
-0.9999095936130712 0.01344635857362676 6.453821600189925e-06
-0.9998478787560409 0.01744188107141202 1.147760909391627e-05
-0.9997527738386162 0.02223490223537904 1.80159825619941e-05
-0.9996090183712295 0.02796086011783407 2.631306675557674e-05
-0.9993952580271014 0.03477235818067302 3.659915826559975e-05
-0.9990819685655928 0.04283944051543243 4.922828823495751e-05
-0.9986288372789097 0.05234922310366676 6.477202626242757e-05
-0.9979815597697668 0.0635043251183797 8.396881722624041e-05
-0.9970680648575622 0.07651968663505068 0.0001076961898425039
-0.9957942713417178 0.09161741335232594 0.0001368709091742554
-0.9940396308041286 0.1090191848756799 0.0001723944135201991
-0.9916528642909217 0.1289362263440514 0.0002151273243423463
-0.9884485152301697 0.1515567949079028 0.0002658129355932217
-0.9842050733774642 0.1770318272410308 0.0003250873138839425
-0.9786654644361945 0.2054598597097466 0.0003934055651693982
-0.9715405603880518 0.2368727879966808 0.0004709857204785986
-0.9625159387162601 0.2712245502070652 0.0005577473723876141
-0.9512615909842937 0.3083844334243558 0.0006532530663265806
-0.9374438363504987 0.348135722225099 0.0007567028924810692
-0.9207390619841525 0.3901779440959379 0.0008669934311925666
-0.9008511652451734 0.4341269535419943 0.0009829978432510803
-0.8775413864604626 0.4794996296874512 0.001104616967841729
-0.8506983692904017 0.525652690939116 0.001238141800123656
-0.8205394268787529 0.5715881466548985 0.001428125031534043
-0.7882951419966177 0.6152941875274771 0.00195752380159245
-0.7590989509346086 0.6509609445729239 0.004316402518643988
-0.9001366364574762 0.4355884110975407 -0.004095341809989087
-0.9160231207322354 0.4011245727101282 -0.0008482052189203
-0.9326824500995401 0.3606985385568651 -0.0001075140005735947
-0.9472535336654372 0.3204851591673102 7.557675245425813e-05
-0.9592779330619516 0.2824638562906461 0.0001304983010563304
-0.9689190320693465 0.2473780262500263 0.0001463640715158769
-0.9765087048999593 0.2154779057021534 0.0001463175227456939
-0.9824038565056962 0.1867689576731588 0.0001384644958430663
-0.9869341546250143 0.1611240467306903 0.000126490055382413
-0.9903839619479744 0.1383459261290654 0.0001124265267558467
-0.9929891946951023 0.1182051171055268 9.751328627556658e-05
-0.9949407890944033 0.1004630249142212 8.259110114341219e-05
-0.9963907071162126 0.08488553537297132 6.824146185476632e-05
-0.9974584453491208 0.0712505914953975 5.489326323222107e-05
-0.9982371252230283 0.05935183222260501 4.287521220749968e-05
-0.9987987786257424 0.04899998741093233 3.239526550473548e-05
-0.9991987634163297 0.04002287635989735 2.356177389112008e-05
-0.9994793582694207 0.03226471953521908 1.632973292296548e-05
-0.9996726474758016 0.02558510851576853 1.05336252052962e-05
-0.9998028138757525 0.01985782796988154 5.869057286337122e-06
-0.9998879473206911 0.014969729417079 1.998441226404808e-06
-0.9999414680706616 0.0108194468882204 -1.312476960298288e-06
-0.9999732360608322 0.007316224736123257 -4.19972794542493e-06
-0.999990412918865 0.004378815670823272 -6.608946880607093e-06
-0.9999981290797797 0.001934364592683649 -8.400139621238532e-06
-0.9999999965655321 -8.232839175485573e-05 -9.537884180652363e-06
-0.9999985044943955 -0.001729423842003228 -1.010675263013352e-05
-0.9999953225294852 -0.003058563676359107 -1.036282810243473e-05
-0.999991532192786 -0.004115268086054217 -1.055005313724165e-05
-0.999987799491291 -0.004939712125807918 -1.061504934030872e-05
-0.9999845008979964 -0.005567571765358049 -1.041259442372288e-05
-0.9999818174942615 -0.00603030519064295 -1.000902517778602e-05
-0.9999798047673193 -0.006355310091378544 -9.547561207720222e-06
-0.999978440851619 -0.006566410733284518 -9.057950205951342e-06
-0.9999776593612224 -0.006684362789072962 -8.517905110784219e-06
-0.9999773724243917 -0.006727152155260971 -7.942863114616906e-06
-0.9999774860333445 -0.006710243826728165 -7.363272992028591e-06
-0.9999779092496628 -0.006646876447322911 -6.794632574237472e-06
-0.9999785594127756 -0.006548333816533134 -6.243165941514552e-06
-0.9999793647452186 -0.006424177073293915 -5.716586849839304e-06
-0.9999802652362786 -0.006282444644798864 -5.221772490886906e-06
-0.9999812123213835 -0.006129843518393178 -4.763986935201174e-06
-0.9999821679771137 -0.005971909987663399 -4.346327834831992e-06
-0.9999831034382366 -0.00581315940421669 -3.971599271402118e-06
-0.9999839978873548 -0.005657203899764042 -3.641320620577883e-06
-0.9999848370989564 -0.005506864888845415 -3.356967519201047e-06
-0.9999856122894771 -0.005364252446606987 -3.118990373182824e-06
-0.9999863190431973 -0.005230842939966333 -2.928091694059737e-06
-0.9999869565208717 -0.00510752194044038 -2.784184421801863e-06
-0.9999875267611131 -0.004994628611650802 -2.68760439366115e-06
-0.9999880342744438 -0.004891962895836542 -2.638017922241213e-06
-0.9999884857067548 -0.004798796407909104 -2.635604417123384e-06
-0.9999888897778314 -0.004713842776096881 -2.679901706666089e-06
-0.9999892572490611 -0.004635232334273578 -2.770974154433917e-06
-0.9999896011269456 -0.004560441811307297 -2.908177882946534e-06
-0.9999899368266756 -0.004486227348723697 -3.091332907322431e-06
-0.9999902824833468 -0.004408506306857043 -3.319383158810653e-06
-0.9999906590740427 -0.004322239206901354 -3.591575816494638e-06
-0.9999910904669145 -0.004221252365597174 -3.905978353523874e-06
-0.9999916029302784 -0.004098054511400433 -4.260733311752817e-06
-0.9999922240320848 -0.003943583867397147 -4.652420290149206e-06
-0.9999929801837295 -0.003746939749533466 -5.077015660262592e-06
-0.9999938923475254 -0.003495030341490114 -5.527865652505258e-06
-0.9999949685674314 -0.003172192277233303 -5.998138190257114e-06
-0.9999961919627323 -0.002759713400444543 -6.479284616177103e-06
-0.999997501670905 -0.002235308378734746 -6.957006205538788e-06
-0.9999987636503629 -0.0015724639582607 -7.405780407019683e-06
-0.99999972637382 -0.0007397238183535304 -7.807529573411851e-06
-0.9999999549281938 0.0003001283811685343 -8.158718162239123e-06
-0.9999987343462882 0.001590985515325803 -8.420891665546194e-06
-0.9999949291588923 0.003184585448231869 -8.486705226683496e-06
-0.9999867811423852 0.005141738206441794 -8.288988513410007e-06
-0.9999716227270958 0.007533503747274614 -7.863068590747628e-06
-0.9999454755123927 0.01044250692342427 -7.1728036265372e-06
-0.9999024895670626 0.01396464541797397 -5.995026584943417e-06
-0.9998341710587596 0.01821072119991223 -4.076985510047448e-06
-0.9997283362749498 0.02330780228620322 -1.227792522359811e-06
-0.9995677145266977 0.02940040932607276 2.707951443491335e-06
-0.9993281127026679 0.0366513724189254 7.869729550163626e-06
-0.9989760516857189 0.04524210370758541 1.450942703733301e-05
-0.9984657840442284 0.05537217315601045 2.308516783674643e-05
-0.9977356470055643 0.06725754621816939 3.422130996761131e-05
-0.9967037651719199 0.08112707391527098 4.868330178503406e-05
-0.995263233883148 0.09721672054405811 6.728385194740059e-05
-0.9932770850268836 0.1157610647361675 9.08385669998462e-05
-0.9905735436191417 0.1369818975252945 0.0001201340333534136
-0.9869423409788159 0.1610738690485121 0.0001558621082125152
-0.9821330479458851 0.188187769747556 0.0001986201553841614
-0.9758564619453914 0.2184126913876556 0.0002488377443395109
-0.9677899443898949 0.2517588716764881 0.0003067083065317153
-0.9575870898780628 0.2881437606953202 0.0003721172129518425
-0.9448914261369437 0.3273835597069849 0.000444574487844478
-0.9293532021395319 0.3691914840926804 0.0005232078384440542
-0.910648655727926 0.4131811437511207 0.0006068520714038614
-0.8885039060947717 0.4588685287011615 0.0006944220359070128
-0.8627344520200412 0.5056566493984475 0.0007862676479471002
-0.8333361105843541 0.5527658941397973 0.0008905458837117408
-0.8007391945552613 0.5990122051784672 0.001058465975209821
-0.7666032034569604 0.6421191434087875 0.001591891167955974
-0.7366889705985635 0.6762199723924006 0.003988675976953002
-0.8711409258399737 0.4910160898826963 -0.004084948344927576
-0.8914532219134129 0.4531117512600871 -0.0009455211324881385
-0.9131343461837583 0.4076587083204395 -0.0002082067971438464
-0.9321735125133638 0.3620117988621941 -7.283920930219004e-06
-0.9478353069430174 0.3187604533189915 6.566663355181247e-05
-0.960325709913059 0.2788808377162011 9.609728726965439e-05
-0.9701058165863807 0.2426822884405049 0.0001072499439341021
-0.9776665676360345 0.2101620110190875 0.0001079406673774467
-0.9834534669715667 0.1811608892485007 0.0001025099883405636
-0.9878449765166935 0.1554422517507775 9.349535159508983e-05
-0.9911514491784813 0.1327358202723485 8.251074291208643e-05
-0.9936218771981384 0.1127632926029487 7.06724052722963e-05
-0.9954530861149766 0.09525308336509328 5.876743543789127e-05
-0.9967989977537738 0.07994845734942019 4.737636054796859e-05
-0.9977789923368853 0.06661141858950931 3.694160980271075e-05
-0.9984850242510853 0.05502413630235443 2.775768309327894e-05
-0.9989874885073859 0.04498885868528895 1.999750123984059e-05
-0.9993399549779819 0.03632704499183861 1.366622464749854e-05
-0.999582939926405 0.02887812551932379 8.635658122563243e-06
-0.9997468860913444 0.02249808278987711 4.630305633445265e-06
-0.9998545000581738 0.01705809812525351 1.329693858340273e-06
-0.9999225823604089 0.01244304156832546 -1.489900033750083e-06
-0.999963447278253 0.008550093083027285 -3.957717892590019e-06
-0.9999860213528389 0.005287443874877583 -6.015732227368031e-06
-0.9999966897671209 0.002573013461201758 -7.518546094558327e-06
-0.9999999443380904 0.0003335459584966581 -8.420780813203809e-06
-0.9999988807463681 -0.001496137899686984 -8.797474023889001e-06
-0.999995578240517 -0.002973788881193329 -8.894022374520458e-06
-0.999991387721248 -0.004150229295568281 -8.951339813984251e-06
-0.9999871463166918 -0.005070219113697173 -8.918392039505731e-06
-0.9999833338329289 -0.005773385625950605 -8.648387947624513e-06
-0.9999801888103914 -0.006294594467185687 -8.19920235013485e-06
-0.9999777941128838 -0.006664174493911709 -7.710073234980349e-06
-0.9999761362923614 -0.006908458136631732 -7.209344522549648e-06
-0.9999751460163209 -0.007050340778938361 -6.673695060686405e-06
-0.999974726254246 -0.007109628355495915 -6.114897226047138e-06
-0.9999747710003895 -0.007103332442316228 -5.561651243406498e-06
-0.999975176648133 -0.007045996186689329 -5.027099111316674e-06
-0.9999758484144189 -0.006950004853480147 -4.51659844783955e-06
-0.9999767036771998 -0.006825839625585484 -4.035688128078568e-06
-0.9999776730979515 -0.006682311928790298 -3.590651939773627e-06
-0.9999787004308354 -0.006526766007211061 -3.185004726464015e-06
-0.9999797414550463 -0.006365270735524813 -2.821636022845284e-06
-0.9999807626214118 -0.006202772028652082 -2.501931995948273e-06
-0.9999817394582167 -0.006043239624322777 -2.227512193735404e-06
-0.9999826551260376 -0.005889774451085259 -1.998742031499008e-06
-0.9999834989813181 -0.005744715987759157 -1.816457089768367e-06
-0.9999842654641092 -0.005609707780368978 -1.680528319625408e-06
-0.9999849530608256 -0.005485767895669748 -1.591523398700647e-06
-0.9999855636384085 -0.005373314840381712 -1.549210806647288e-06
-0.9999861018442677 -0.005272202185979475 -1.554188786776813e-06
-0.9999865748746896 -0.005181705106048572 -1.606337292073258e-06
-0.9999869922715031 -0.005100518099194674 -1.706437725970283e-06
-0.9999873660633752 -0.00502669973176471 -1.854551810510041e-06
-0.9999877108777289 -0.004957629404267549 -2.051658665190385e-06
-0.9999880443406763 -0.004889904950882101 -2.2979353055513e-06
-0.9999883873406853 -0.004819250672445556 -2.594437210580067e-06
-0.9999887644340291 -0.004740358325366887 -2.941236030114177e-06
-0.9999892038663777 -0.004646734287393589 -3.339161990463563e-06
-0.9999897373636095 -0.00453046941402675 -3.787821679951873e-06
-0.9999903989485063 -0.004382007807483309 -4.287435980947866e-06
-0.9999912226316328 -0.004189825330700768 -4.836321092182039e-06
-0.9999922377818035 -0.003940094748493398 -5.432677578950734e-06
-0.9999934613453106 -0.003616245254245472 -6.07332044553135e-06
-0.999994884773919 -0.00319849657660732 -6.756146110728563e-06
-0.9999964534723993 -0.002663266188786872 -7.472001574791504e-06
-0.9999980347762858 -0.001982517656436062 -8.204152396129322e-06
-0.9999993694301239 -0.00112296900202717 -8.942873964311882e-06
-0.9999999989283471 -4.526910649361102e-05 -9.696046984131182e-06
-0.9999991588291497 0.001297008909714027 -1.0434597156336e-05
-0.9999956234009814 0.002958556473311673 -1.10669222522036e-05
-0.9999874815914236 0.005003651384891384 -1.154385621024418e-05
-0.9999718192422226 0.007507368333851018 -1.192052568984536e-05
-0.9999442731191659 0.01055701226180983 -1.217728568492382e-05
-0.9998984083019771 0.01425387415245044 -1.211685869477761e-05
-0.9998248594145428 0.01871497700032841 -1.151374019767288e-05
-0.9997101672000825 0.02407449880306308 -1.020607680691543e-05
-0.9995352219497372 0.03048507859246322 -8.068490318210768e-06
-0.9992732177164098 0.03811871364210853 -4.996300486310681e-06
-0.998887012342852 0.04716711324833845 -7.67622726118208e-07
-0.998325793532189 0.05784124776378848 5.045049127413342e-06
-0.9975209921843188 0.07036952452167514 1.304626582200214e-05
-0.9963814606004767 0.0849940256498829 2.398931241875936e-05
-0.9947880580022292 0.1019642984546789 3.868847338493217e-05
-0.9925879958412075 0.1215280508806727 5.797481296091527e-05
-0.9895895352116958 0.1439185358658656 8.26663460854757e-05
-0.9855579634109031 0.1693383827580426 0.0001134999695021184
-0.9802140304725494 0.1979404749514677 0.0001511315546000531
-0.9732361826983943 0.2298070805072661 0.0001960494432821815
-0.9642678016640316 0.2649293206188955 0.0002484963294448724
-0.9529301132555 0.3031898813556989 0.0003083737608694211
-0.9388405853613503 0.344351876042016 0.0003751595667708862
-0.9216358264600134 0.3880556696989952 0.0004478837259188243
-0.9009982640972998 0.4338223740523726 0.0005252287269069906
-0.8766890939027253 0.4810570293211649 0.0006059477815145647
-0.8486001371429329 0.5290343378644142 0.0006903632059215324
-0.8168639847617469 0.5768297937533546 0.0007870435964519538
-0.7821349836543618 0.6231083117891718 0.0009482210918309102
-0.7463874713622951 0.6655100093864953 0.001473091913342675
-0.7156345815712915 0.6984644163710534 0.003821612581834506
-0.8405820500883471 0.5416692330177104 -0.004032253870504096
-0.8648760430843515 0.5019844511457217 -0.001020248343829528
-0.8913548625573224 0.4533060985485889 -0.0003000234551313499
-0.9149581500590288 0.4035487280221578 -8.804690732089934e-05
-0.9345422295764393 0.3558522462169152 8.205247581005465e-07
-0.9502249086691428 0.3115647939685142 4.587020728891256e-05
-0.9625221138366286 0.2712031998730284 6.89499672744001e-05
-0.9720282628953765 0.2348638965530096 7.892105923352105e-05
-0.9792979802272551 0.2024239596326053 8.055728030435226e-05
-0.984807775488765 0.1736480331813771 7.687073413172044e-05
-0.9889501376876196 0.1482485085365953 6.988786137643286e-05
-0.9920403480995986 0.1259203876061592 6.105359263205373e-05
-0.9943275394801433 0.106361372632537 5.141095592563251e-05
-0.9960062865537619 0.08928311936644018 4.173228315716532e-05
-0.9972272171319045 0.07441690902104282 3.260537770266581e-05
-0.998106093851685 0.06151605334482146 2.443375139548024e-05
-0.9987313175583025 0.05035628086949725 1.747138969264776e-05
-0.9991699834407329 0.04073504697670704 1.1783493355261e-05
-0.9994727015516947 0.03247027563588589 7.286022952461498e-06
-0.9996773976122022 0.02539883244067399 3.734289872782705e-06
-0.9998122871421227 0.0193749962311325 8.250736330157277e-07
-0.9998981959112673 0.01426877046721683 -1.657366397581351e-06
-0.9999503551700855 0.009964295283540514 -3.836962016815457e-06
-0.9999797853659929 0.006358366724251426 -5.655290257484451e-06
-0.999994358634716 0.003358965655287661 -6.961989338758268e-06
-0.9999996090760132 0.0008841880281797937 -7.703959346106606e-06
-0.9999993516944146 -0.001138660441585481 -7.946622624577663e-06
-0.9999961528587308 -0.002773842982715803 -7.927456476525467e-06
-0.9999916856441669 -0.004077815634448556 -7.885972116260377e-06
-0.999986993942513 -0.005100184832819802 -7.777346081914918e-06
-0.9999826847484503 -0.005884738544374354 -7.452862061794461e-06
-0.9999790698662312 -0.006469913520888965 -6.964116110157861e-06
-0.9999762698661504 -0.00688909740268951 -6.446383420208434e-06
-0.9999742863892077 -0.007171228990575685 -5.929488403923431e-06
-0.9999730514293752 -0.007341415802701002 -5.388488760903634e-06
-0.999972461456772 -0.007421341167105141 -4.833773371539253e-06
-0.9999724001216419 -0.007429601371915456 -4.291496962702242e-06
-0.9999727520868599 -0.007382077592568093 -3.774677748733437e-06
-0.9999734110112334 -0.00729227397701473 -3.286769481781605e-06
-0.9999742836490902 -0.00717161296091986 -2.833166973748884e-06
-0.99997529145764 -0.007029684797972081 -2.418358915251547e-06
-0.9999763704311213 -0.006874487269162705 -2.04600937267818e-06
-0.999977470099312 -0.006712621755289584 -1.717474283093299e-06
-0.9999785519203913 -0.006549480677040196 -1.434497344625091e-06
-0.9999795876455911 -0.006389388915935298 -1.197381558072995e-06
-0.9999805575506253 -0.006235745322410224 -1.00705699062535e-06
-0.9999814489795914 -0.006091116148225891 -8.632540195952701e-07
-0.9999822549233824 -0.005957334786593721 -7.666061052761663e-07
-0.9999829730293806 -0.005835550600146697 -7.167744571482153e-07
-0.9999836046682558 -0.005726289738652186 -7.14493475174504e-07
-0.9999841544578513 -0.005629461132222881 -7.596491664482293e-07
-0.9999846298130383 -0.005544378860810727 -8.533131394548355e-07
-0.9999850409430553 -0.00546972477590467 -9.957563822519985e-07
-0.9999854008247825 -0.005403529946817126 -1.188502052752149e-06
-0.9999857255904039 -0.005343090246467353 -1.432247058257912e-06
-0.9999860348108037 -0.005284901169946047 -1.728970620168966e-06
-0.9999863521060415 -0.005224518860780086 -2.079728177419271e-06
-0.9999867054810807 -0.005156438199889337 -2.486838904871232e-06
-0.9999871277468516 -0.005073887256324903 -2.95150395808436e-06
-0.9999876562597101 -0.004968633225301506 -3.476171354651224e-06
-0.9999883321273043 -0.004830692781823284 -4.061963925544508e-06
-0.9999891977714201 -0.004648044565099808 -4.710835590904136e-06
-0.999990292506804 -0.004406229993095116 -5.422549561849219e-06
-0.9999916443061651 -0.004087943178276338 -6.198629195843184e-06
-0.9999932563430854 -0.003672494900152939 -7.039878617656648e-06
-0.9999950850735547 -0.003135245706041288 -7.943353069464632e-06
-0.9999970063534757 -0.002446876571424592 -8.895540754958187e-06