# OOMMF: rectangular mesh v1.0
# Segment count: 1
# Begin: Segment
# Begin: Header
# Title: 
# Desc: time = 9.429883661562519e-11
# Desc: stepsize = 4.183745808701689e-13
# Desc: step = 180
# meshunit: m
# valueunit: (none)
# valuemultiplier: 800000.0000000002
# xmin: 0
# ymin: 0
# zmin: 0
# xmax: 4e-07
# ymax: 1e-07
# zmax: 4e-09
# ValueRangeMaxMag: 1
# ValueRangeMinMag: 0.9999999999999996
# meshtype: rectangular
# xbase: 2e-09
# ybase: 2e-09
# zbase: 1e-09
# xstepsize: 4e-09
# ystepsize: 4e-09
# zstepsize: 2e-09
# xnodes: 100
# ynodes: 25
# znodes: 2
# End: Header
# Begin: Data Text
-0.9447175259948032 0.3278773043802971 -0.00229550660370598
-0.9514596724672293 0.3077727507808675 0.0006523383556032194
-0.9596527420058237 0.2811854299485383 0.001169933912242798
-0.9675874671563999 0.2525333464414778 0.001184203078395452
-0.9745523015806915 0.2241575538244875 0.001096607130544804
-0.9803498640964488 0.1972642111727565 0.0009873988373613079
-0.9850230256829002 0.1724206198179407 0.0008767759697817956
-0.9887104871903801 0.1498365026813215 0.0007713520538990975
-0.9915760086313989 0.1295243812274181 0.000673627699714971
-0.9937764051401601 0.1113917185884468 0.0005844797795526592
-0.9954490438079762 0.09529400368085236 0.0005040280339533332
-0.9967087127944845 0.08106512944453255 0.0004320042853279441
-0.9976486800256668 0.06853448666064584 0.0003679418512293964
-0.9983433706466622 0.057536226784784 0.0003112767747002198
-0.998851431250424 0.04791398499163787 0.000261402373074526
-0.9992186396296597 0.0395229404096659 0.0002177108757457825
-0.9994804490547682 0.03223041579472898 0.0001795967077744554
-0.99966412225792 0.02591565573098307 0.0001464866378375443
-0.9997904770267257 0.02046920038387753 0.0001178232411629005
-0.9998752926555036 0.015792101569101 9.308652720120075e-05
-0.9999304333355797 0.01179505556402537 7.178830494660737e-05
-0.9999647381385972 0.008397596088243831 5.347284311225462e-05
-0.9999847236271353 0.005527303902129379 3.773506086832882e-05
-0.9999951353380591 0.00311908864179581 2.421282874954743e-05
-0.9999993788200434 0.001114540628484023 1.259818633570051e-05
-0.9999998549097351 -0.0005386775202550964 2.652819929118207e-06
-0.9999982188635786 -0.00188738865542488 -5.808050006216357e-06
-0.999995579409982 -0.00297338084660081 -1.291647088375752e-05
-0.9999926503723994 -0.00383390791242362 -1.874306941015882e-05
-0.9999898652445325 -0.00450209538771481 -2.335254338416126e-05
-0.9999874631455999 -0.005007278124129803 -2.678460119444172e-05
-0.9999855520130679 -0.005375399284161451 -2.911451263443761e-05
-0.9999841549622205 -0.005629288970949548 -3.049876692755357e-05
-0.999983243556028 -0.005788924004197555 -3.108116662716328e-05
-0.9999827613024778 -0.005871638170172368 -3.103337248386707e-05
-0.9999826396320203 -0.005892325198968121 -3.063210505766945e-05
-0.9999828074004727 -0.00586378659284093 -3.017055315994198e-05
-0.9999831968742481 -0.005796989085874497 -2.97774477902184e-05
-0.9999837479721461 -0.005701133662684614 -2.94370353587848e-05
-0.9999844096611414 -0.005583868409873621 -2.912454391140576e-05
-0.999985138530696 -0.005451778416450447 -2.880698059925796e-05
-0.9999858982867231 -0.005310595065491247 -2.842085970263931e-05
-0.999986660309323 -0.00516511642299082 -2.78521648301273e-05
-0.9999874029390518 -0.005019286234695126 -2.699822951075449e-05
-0.9999881108812295 -0.004876210084309229 -2.59114449817004e-05
-0.9999887745256287 -0.004738164897085149 -2.48221388751288e-05
-0.9999893883927939 -0.004606791353266677 -2.398400993669805e-05
-0.9999899500350532 -0.004483221848704803 -2.346798602729695e-05
-0.9999904594298596 -0.004368124589605845 -2.316954484277578e-05
-0.9999909186359174 -0.004261703993582095 -2.290774051874151e-05
-0.9999913315127803 -0.004163699646556043 -2.246218693843627e-05
-0.9999917032499299 -0.004073445454875106 -2.175843717359643e-05
-0.9999920404437556 -0.003989813218048316 -2.096709433769109e-05
-0.9999923513438422 -0.003911117486075426 -2.03426463845462e-05
-0.9999926456932224 -0.003835121602073712 -2.004411005851756e-05
-0.9999929348609033 -0.003758966461085627 -1.998551775330179e-05
-0.9999932319240235 -0.003679090979813707 -1.989240854835323e-05
-0.9999935516073379 -0.003591150463032218 -1.954721529197099e-05
-0.9999939106865913 -0.003489732565550584 -1.887745279705383e-05
-0.9999943276994659 -0.003368122223888585 -1.793258034126789e-05
-0.9999948214602302 -0.003218193505475303 -1.683103307471611e-05
-0.9999954086261035 -0.003030261145540277 -1.562375638753192e-05
-0.9999960995877244 -0.002792956584857176 -1.424263922322904e-05
-0.9999968927046945 -0.002492874015827508 -1.265291834178666e-05
-0.9999977656472412 -0.002113902075218235 -1.088764726660114e-05
-0.9999986606942356 -0.001636622204314901 -8.8031242221143e-06
-0.999999461383912 -0.001037880141532491 -6.057849526430164e-06
-0.999999957877135 -0.0002902418228153168 -2.326359287543474e-06
-0.9999997959116249 0.0006388815797387298 2.652488332985263e-06
-0.9999984012884382 0.001788110001141203 9.120909535930266e-06
-0.9999948705969663 0.003202886053576001 1.734024948671744e-05
-0.9999878151133502 0.004936483029614318 2.757037740790848e-05
-0.9999751393200753 0.007051179860435959 4.005460446923469e-05
-0.9999537299836223 0.00961950408249364 5.507310871705166e-05
-0.9999190243470683 0.01272554206114839 7.299354073078397e-05
-0.9998644167015445 0.01646630879908034 9.427944222741316e-05
-0.9997804535514621 0.0209530527045965 0.0001194938947432006
-0.999653756827837 0.02631243352549766 0.0001493383993082884
-0.9994656070870664 0.032687400626465 0.0001846357670771128
-0.9991901165517072 0.0402375416123745 0.0002263412856219841
-0.9987919249850266 0.04913872874589388 0.0002755393655831136
-0.9982233783856476 0.05958167230148804 0.000333421808399039
-0.9974211921336065 0.07176910513190644 0.0004012871045587946
-0.9963026803947442 0.08591122254288908 0.0004804991505063893
-0.9947617458100669 0.1022190851406024 0.0005724560467843693
-0.9926649643420887 0.1208958566845651 0.0006785309309041679
-0.9898482547212253 0.1421259744883946 0.0008000006675009322
-0.9861147388418975 0.1660627654662921 0.0009379576018314091
-0.981234424489543 0.1928154793411241 0.00109321687117442
-0.9749462093802587 0.2224371495696283 0.001266217360163978
-0.9669623915120159 0.2549149087578915 0.001456946916748406
-0.9569754612503624 0.2901640824164199 0.001664884408242951
-0.9446667182934193 0.3280262535856798 0.001888996369616184
-0.9297167497436457 0.3682692463822471 0.002127772347473017
-0.9118200702005106 0.4105831197007543 0.002379368893536003
-0.8907123630280127 0.454559682827711 0.002642176493734315
-0.8662346672632129 0.499628848234693 0.002918088940471907
-0.8385057594193993 0.5448831366790969 0.003234004212176524
-0.8084576743033196 0.5885421487329914 0.003785237749540321
-0.7801134666467645 0.625612262388592 0.005681223934530578
-0.9260648833492577 0.3773466515190875 -0.003651905620011628
-0.9372333945935134 0.3487024597421068 -0.0003982819644231036
-0.9490336672108074 0.3151745886940872 0.0002777443409486012
-0.9596242735580601 0.2812847197254714 0.0004000589054813388
-0.9685695566342353 0.2487425362085055 0.0004057609155708897
-0.9758643950529848 0.2183770518526943 0.0003816962104912766
-0.9816751306334991 0.1905618436596524 0.0003487645857600359
-0.9862261726181369 0.1654020499440938 0.0003135558508059557
-0.9897448583357732 0.1428462029992458 0.0002787231564470967
-0.9924367720905619 0.1227566418679811 0.0002455193718023441
-0.9944771336089274 0.1049532500042016 0.0002145752236407625
-0.9960101473711187 0.08923985470244063 0.0001861892831753769
-0.9971518731800637 0.07541960000086864 0.0001604655683482198
-0.9979943181687329 0.06330341245083186 0.0001373863362207729
-0.9986096282969834 0.05271429235147206 0.0001168522310058581
-0.9990538974160601 0.04348908267993337 9.871898388825502e-05
-0.9993704246667928 0.03547883094802001 8.280021364367735e-05
-0.9995924102638583 0.02854835539367124 6.889997551662479e-05
-0.9997451410545181 0.0225754227347849 5.679988799802281e-05
-0.9998477398422833 0.01744978481316017 4.628446480742656e-05
-0.9999145551372919 0.01307214769076764 3.713949813466769e-05
-0.9999562572793982 0.009353217505972844 2.915584848499539e-05
-0.9999807002585204 0.006212778753419039 2.215038646180082e-05
-0.9999935957332826 0.003578859830412333 1.596038175073684e-05
-0.9999990380855805 0.001386981823657316 1.045629037692839e-05
-0.9999999115576206 -0.0004205399588168835 5.558250631854591e-06
-0.9999982040420378 -0.001895233812927626 1.221904002383738e-06
-0.999995247472366 -0.003083022238191074 -2.561206922574076e-06
-0.9999919005048812 -0.004024784658098944 -5.752488620471091e-06
-0.9999886862336683 -0.004756819887972843 -8.31958199620443e-06
-0.9999858952489233 -0.005311233269232472 -1.02160964162246e-05
-0.999983661296212 -0.00571638082665919 -1.143970488418462e-05
-0.9999820166386492 -0.005997187129272042 -1.207629361952945e-05
-0.999980931722382 -0.006175438659882896 -1.220632666603559e-05
-0.9999803431259402 -0.006270025438824285 -1.194666814050575e-05
-0.9999801725337694 -0.006297174484590229 -1.152574392583939e-05
-0.9999803381258179 -0.006270824227414577 -1.119302818664395e-05
-0.9999807617524423 -0.00620290279645892 -1.104095713209748e-05
-0.9999813738926666 -0.006103420854236458 -1.102771483565437e-05
-0.9999821153361911 -0.005980709350827761 -1.110934331231675e-05
-0.9999829357245286 -0.005841928923498476 -1.123413620695136e-05
-0.99998379301039 -0.005693293281050715 -1.132117635944812e-05
-0.9999846540148327 -0.005540000762552857 -1.124214825273294e-05
-0.9999854935910939 -0.005386324253376799 -1.088179198483241e-05
-0.9999862939127152 -0.005235635681514123 -1.028215313457646e-05
-0.9999870436662889 -0.005090422983280696 -9.664706528439282e-06
-0.9999877363155039 -0.004952487512435623 -9.275414501673529e-06
-0.9999883688662758 -0.004823074524395557 -9.181329004128072e-06
-0.9999889411435765 -0.004702925096305629 -9.278276234840132e-06
-0.9999894553709151 -0.004592282530768427 -9.388187849213004e-06
-0.9999899158464345 -0.004490892904481214 -9.29308310519278e-06
-0.9999903284169721 -0.004398066957066796 -8.919500741423978e-06
-0.999990700566419 -0.004312622107097422 -8.440585032706287e-06
-0.9999910416969445 -0.004232783953338804 -8.115635853984189e-06
-0.9999913629873822 -0.004156186338552192 -8.109035366218575e-06
-0.9999916775909202 -0.004079789122708418 -8.34330324089118e-06
-0.9999920007410859 -0.00399979757024521 -8.557845061648521e-06
-0.9999923496955823 -0.003911582436362197 -8.552882724435236e-06
-0.9999927442457834 -0.003809381487051843 -8.274857480398192e-06
-0.9999932064835115 -0.003686044773660785 -7.794303852419807e-06
-0.9999937592149932 -0.003532913582666347 -7.258295029085994e-06
-0.9999944232965075 -0.003339660208146976 -6.751247310817347e-06
-0.9999952130962324 -0.003094147012517863 -6.235789458149798e-06
-0.9999961300769236 -0.002782049337488078 -5.714864733834336e-06
-0.9999971531136503 -0.002386155222263122 -5.277230424955285e-06
-0.9999982220097822 -0.001885723674543141 -4.847377167672734e-06
-0.999999211199129 -0.001256019033130944 -4.160231894586397e-06
-0.9999998906098793 -0.0004677299830458005 -2.982015240044929e-06
-0.9999998679244568 0.0005139549762017788 -1.162273303152256e-06
-0.9999985030555811 0.001730284542238386 1.413986631673807e-06
-0.9999947841794303 0.003229797254067295 4.861232464388748e-06
-0.9999871505097467 0.005069391433848995 9.267547215863352e-06
-0.9999732407145367 0.007315575125852018 1.467803089058729e-05
-0.9999495395366116 0.01004579183038688 2.114282110423111e-05
-0.9999108868854553 0.01334981126021812 2.876209823389978e-05
-0.9998498031220444 0.01733117930704701 3.769131828311331e-05
-0.9997555738832882 0.02210859949465979 4.814230533783694e-05
-0.9996130257912288 0.02781717128309795 6.041779981648065e-05
-0.9994009160540817 0.03460929616880668 7.489300164891304e-05
-0.9990898567941706 0.04265500652632478 9.202848662508638e-05
-0.9986396996741329 0.05214151520446413 0.0001123696569088337
-0.9979963383937721 0.06327155689381536 0.000136531520374408
-0.9970879373590592 0.0762601985268971 0.0001652080348322764
-0.9958206912513345 0.09132968420443834 0.0001991452529512835
-0.9940743567694927 0.1087019596453263 0.000239128804293902
-0.9916979715948075 0.1285886906722299 0.0002859474530063145
-0.9885063691536503 0.151178842126165 0.0003403469682572468
-0.9842782509601128 0.1766243536547364 0.0004029676749707615
-0.9787566217484726 0.205024999564343 0.0004742754028722281
-0.9716522397994297 0.2364140804659413 0.0005544819154455772
-0.9626503401273196 0.2707469456530306 0.0006434845063978673
-0.9514203321086833 0.307894142256152 0.0007408201879450122
-0.9376277507630992 0.3476398795019004 0.0008456824671908908
-0.9209480698068737 0.3896841501127349 0.0009570109240726993
-0.9010842577971424 0.4336427184992004 0.00107379830306847
-0.8777967244121785 0.4790318149465448 0.00119619407652243
-0.8509734907632169 0.5252069560852557 0.001330901170188045
-0.8208315467612149 0.5711683219128654 0.001523116814994292
-0.7886015302950119 0.6149011273086552 0.002056708756796161
-0.7594168925930338 0.6505892895710105 0.004422616852965255
-0.9007466288930609 0.4343276623147646 -0.003871987342149405
-0.916541376968411 0.3999393471856593 -0.0006502903639290988
-0.933100962535755 0.3596145016313244 6.270008875224371e-05
-0.9475833678765614 0.319508547334814 0.0002215935684122663
-0.9595342665774904 0.2815917710045548 0.0002564490503671943
-0.9691164402966853 0.2466034461818982 0.000255886483344591
-0.9766597398766304 0.2147922105988315 0.0002424256161565813
-0.9825188097209285 0.1861632040312602 0.0002236277818096128
-0.9870212488956545 0.1605895797368539 0.0002027520728704288
-0.9904496700858872 0.1378746463041069 0.0001814752713604367
-0.9930385651952849 0.1177895674214883 0.000160753066470803
-0.9949777361778636 0.1000963764980247 0.0001411465147589413
-0.9964182465824512 0.08456159148514848 0.0001229758191770686
-0.9974788898364284 0.07096374432812701 0.0001064030914578617
-0.9982522342943517 0.05909710955773055 9.14781722223698e-05
-0.9988098825725326 0.04877307006098393 7.818100531662625e-05
-0.9992068614006085 0.03982014210452829 6.642830520778935e-05
-0.999485198797891 0.03208323916898038 5.611030187724712e-05
-0.999676793143772 0.02542256936504767 4.708144770276962e-05
-0.9998056907076704 0.01971241468722217 3.918872810207172e-05
-0.9998898826255247 0.01483986460778334 3.227285311609942e-05
-0.9999427139601804 0.01070364951196764 2.617390163866115e-05
-0.9999739855540499 0.007213028798820539 2.075320763609591e-05
-0.9999908115544451 0.004286788336493597 1.588834867153274e-05
-0.9999982843518368 0.001852339455219662 1.148586444635658e-05
-0.9999999879424321 -0.0001551094365192968 7.496551515247985e-06
-0.9999983920169818 -0.001793306504829865 3.902556458191987e-06
-0.9999951527067553 -0.003113609236721889 7.165261627854688e-07
-0.9999913403558833 -0.00416163540249142 -2.004974733831812e-06
-0.9999876106326036 -0.004977807101455289 -4.213890449984411e-06
-0.9999843321292939 -0.005597808651574791 -5.850609495944423e-06
-0.9999816798254033 -0.006053095568727569 -6.899277699565528e-06
-0.9999797032397766 -0.00637126779085814 -7.431336504641645e-06
-0.9999783751444162 -0.006576411413417433 -7.513608981561002e-06
-0.9999776257724849 -0.006689387252342075 -7.253402727312563e-06
-0.9999773660059745 -0.006728107353610066 -6.869568623069827e-06
-0.9999775014784195 -0.006707942562639903 -6.599493208251557e-06
-0.999977941477267 -0.006642026519548247 -6.526904062814262e-06
-0.9999786048898796 -0.006541385083437734 -6.609073991591553e-06
-0.9999794223206377 -0.006415207634215134 -6.803894189835195e-06
-0.9999803347165634 -0.006271373882462092 -7.055178664481957e-06
-0.9999812928267304 -0.006116693849556367 -7.275416294504924e-06
-0.9999822577394664 -0.005956857603655141 -7.332719870881951e-06
-0.9999831998799924 -0.005796542697040037 -7.108602786799711e-06
-0.9999840981360466 -0.005639453066900843 -6.64407735899347e-06
-0.9999849388950476 -0.005488346302423255 -6.1588927927814e-06
-0.9999857141185771 -0.005345233765476672 -5.895023989310172e-06
-0.9999864199680304 -0.005211510768758488 -5.91850079701005e-06
-0.9999870559269837 -0.005088019353548291 -6.12711327202183e-06
-0.9999876242714828 -0.004975064180943631 -6.34591119775683e-06
-0.9999881296938848 -0.004872415303284041 -6.359085303990737e-06
-0.999988578704201 -0.004779374858974989 -6.091693484790613e-06
-0.999988979732279 -0.004694718448343549 -5.717169796044544e-06
-0.9999893434622906 -0.004616593077079996 -5.497012526790641e-06
-0.999989682738238 -0.004542508754368011 -5.594159573604482e-06
-0.9999900128803643 -0.00446923979625944 -5.930583908205415e-06
-0.9999903518318577 -0.004392744486191903 -6.2511054114006e-06
-0.9999907201005067 -0.004308093821962729 -6.363228736235064e-06
-0.9999911414282823 -0.004209159807537844 -6.218965651378015e-06
-0.9999916427006121 -0.004088336361296243 -5.89303560350896e-06
-0.9999922523217114 -0.003936402650541283 -5.542813484270915e-06
-0.999992997372154 -0.003742349386935087 -5.265051892373872e-06
-0.9999938986961086 -0.003493214181350888 -5.023896652636735e-06
-0.9999949638517568 -0.003173680490512428 -4.823609522147697e-06
-0.9999961763980022 -0.002765351086691084 -4.7689003557073e-06
-0.9999974775865293 -0.002246062662663296 -4.80561430560617e-06
-0.9999987369289367 -0.001589376783266907 -4.687373995219492e-06
-0.9999997081721196 -0.0007639620513891661 -4.202338016701291e-06
-0.9999999642488975 0.0002673794539504264 -3.229691707433281e-06
-0.9999988007391025 0.00154871479417935 -1.686002042279835e-06
-0.9999950955872174 0.003131900581524237 5.087925426958874e-07
-0.9999871083030936 0.005077717601449316 3.402486512201026e-06
-0.9999721946691801 0.007457200518371744 6.99514080070513e-06
-0.9999464056458696 0.01035305310362906 1.128447727990457e-05
-0.9999039298284786 0.01386112721232372 1.63085347279824e-05
-0.9998363267921597 0.01809196330127659 2.215100067193989e-05
-0.9997314866769926 0.02317226162783976 2.894236964890437e-05
-0.999572237737346 0.02924619947269089 3.689387073998942e-05
-0.9993345139877294 0.03647638977561914 4.628006964136324e-05
-0.9989849922647115 0.04504422192480568 5.745487586130426e-05
-0.9984781140242748 0.05514934990109997 7.08520530944945e-05
-0.9977524439657113 0.06700785771787143 8.69741969641471e-05
-0.9967263779759544 0.08084872370531326 0.0001064056218789192
-0.9952933278348274 0.0969080735645267 0.0001297901630102332
-0.9933166759154922 0.1154207799324181 0.0001578226508039924
-0.9906250091382106 0.1366091311232629 0.0001912162832311961
-0.9870083885463748 0.1606685648656987 0.0002306579383230527
-0.9822166203053175 0.1877509898999158 0.0002767446492173875
-0.9759605773587215 0.2179468802293876 0.0003299089379167097
-0.9679174639047895 0.2512680455413793 0.000390330546267999
-0.9577404405350328 0.2876335149515706 0.000457865007462519
-0.9450723112494106 0.3268608931892447 0.0005319898737718003
-0.9295623612123224 0.3686644033372798 0.0006118245981938535
-0.9108857203796098 0.4126581147184743 0.0006962510419037135
-0.88876741026357 0.4583578026978233 0.0007843209863447805
-0.8630220015212312 0.5051655731967779 0.0008766681574036486
-0.8336447144187649 0.5523002135970571 0.0009819278490350149
-0.8010657139929042 0.5985753040533649 0.001152060093864942
-0.7669448025777886 0.6417108490727661 0.001689964859361038
-0.7370427272565002 0.6758337476581729 0.004094352770438573
-0.8718288595303931 0.4897953354286959 -0.003868989819691853
-0.8920477843448332 0.4519404661067837 -0.0007520243722665597
-0.9136226459227433 0.4065632291286487 -3.971915377031989e-05
-0.9325636562551664 0.3610055507950437 0.000139022165883141
-0.9481417351809109 0.3178477822040696 0.0001932772234829273
-0.9605636009066304 0.2780602907481175 0.0002081402403555583
-0.9702889284647904 0.2419490704895767 0.0002063683067090435
-0.9778065652833471 0.2095096234940359 0.0001963470660407856
-0.9835598916551136 0.1805821319383359 0.0001820768679659108
-0.9879254666934534 0.1549298059400637 0.000165800772097448
-0.9912120359847333 0.1322825670693793 0.0001488910168706564
-0.9936672782490343 0.1123624610651567 0.0001322139811528036
-0.9954869599081189 0.0948983620721825 0.0001163138327216785
-0.9968241626774235 0.07963402788138924 0.0001015176812168819
-0.9977976006946009 0.06633204583552997 8.799642280889536e-05
-0.9984987076634706 0.05477522291982954 7.581861220763024e-05
-0.9989974752994909 0.04476650672914555 6.496546677800276e-05
-0.9993471666547432 0.03612806987516229 5.537356797862418e-05
-0.9995880694918426 0.02869998479105649 4.693147920037789e-05
-0.9997504578712348 0.02233876507628137 3.951104820342488e-05
-0.9998569160298754 0.01691586178781607 3.29727499972585e-05
-0.9999241515155639 0.01231626881414558 2.717309099826091e-05
-0.999964405946337 0.008437200775894079 2.198764600149831e-05
-0.999986547805289 0.00518689781310781 1.730712549061853e-05
-0.9999969158962885 0.002483551413770498 1.304936370183512e-05
-0.9999999676179511 0.0002543224965252898 9.174100074998571e-06
-0.9999987745103674 -0.0015655496193646 5.670291760247707e-06
-0.9999953988586632 -0.003033521876872492 2.554449976252193e-06
-0.9999911778425199 -0.004200504388300787 -1.149378149582583e-07
-0.999986936189455 -0.005111501265665952 -2.288611241796969e-06
-0.9999831441358258 -0.005806154403440609 -3.907847936799252e-06
-0.999980032834068 -0.006319328177149999 -4.95633703314477e-06
-0.9999776781796138 -0.006681550137104889 -5.502165436970409e-06
-0.9999760605811798 -0.006919409879165388 -5.60965624467081e-06
-0.9999751067797898 -0.007055904742724917 -5.386003088733437e-06
-0.9999747181512543 -0.007110768793561335 -5.04818196534028e-06
-0.9999747881663249 -0.007100916026634479 -4.82660918291149e-06
-0.9999752134259975 -0.007040774856884219 -4.800491659904222e-06
-0.9999759008204914 -0.006942460221372349 -4.931603143491792e-06
-0.9999767702236081 -0.006816082913985809 -5.183677321805753e-06
-0.9999777533352732 -0.006670292670607023 -5.497946950390569e-06
-0.9999787932116386 -0.00651253357573935 -5.780983249856589e-06
-0.9999798447706878 -0.006349017056736747 -5.899526756029351e-06
-0.9999808736228475 -0.006184848872391227 -5.736885673839699e-06
-0.9999818550131475 -0.006024086319639812 -5.336437314806534e-06
-0.9999827726887528 -0.005869778661312118 -4.917404896558451e-06
-0.99998361680932 -0.005724167250174637 -4.716202803495093e-06
-0.9999843824324857 -0.00558881634390497 -4.795258816306956e-06
-0.9999850684707869 -0.005464687542195011 -5.053826674300212e-06
-0.9999856770453794 -0.005352165522015112 -5.321564426626952e-06
-0.9999862130512159 -0.005251064507649723 -5.387407432866406e-06
-0.9999866834996426 -0.00516069729596981 -5.177282758603221e-06
-0.9999870976311483 -0.005079817671461664 -4.863810007132539e-06
-0.9999874672970596 -0.005006518415836379 -4.707823263236585e-06
-0.9999878069432662 -0.004938212339874397 -4.866527278304246e-06
-0.9999881340745704 -0.004871517465221865 -5.257788276698076e-06
-0.9999884694607699 -0.004802178025554433 -5.631808447120456e-06
-0.999988837101218 -0.004725001508220598 -5.80520258555003e-06
-0.9999892650879433 -0.004633538172445467 -5.734049503745109e-06
-0.9999897857277324 -0.004519779864834519 -5.493328575691268e-06
-0.9999904339699011 -0.004374007450668503 -5.244989792775802e-06
-0.9999912444879312 -0.00418460530425988 -5.091735304930866e-06
-0.9999922465431261 -0.003937871085304336 -4.994656804503194e-06
-0.9999934564835109 -0.003617591133471464 -4.95490736471282e-06
-0.9999948662169427 -0.003204296166629388 -5.082798674270869e-06
-0.9999964233931501 -0.002674541540781192 -5.334207613322692e-06
-0.9999979992662738 -0.002000358344386369 -5.472026508067901e-06
-0.9999993403441267 -0.00114860057325401 -5.294718305007039e-06
-0.9999999967945026 -7.993097834671774e-05 -4.693921848358314e-06
-0.9999992159448339 0.001252236707148127 -3.59810610860575e-06
-0.9999957871032491 0.002902718035163906 -1.939407833570093e-06
-0.9999878191060911 0.004935751142719616 3.165179158143936e-07
-0.9999724239307469 0.007426396711115069 3.155181586011588e-06
-0.9999452714536553 0.01046202917699216 6.555527285869293e-06
-0.9998999700298004 0.01414389703897877 1.053349193355332e-05
-0.9998272141420762 0.01858875013273716 1.514586621487098e-05
-0.999713626785155 0.02393039908029963 2.049217856332804e-05
-0.9995402087864055 0.03032111976367763 2.674892930307445e-05
-0.999280296036954 0.03793268756249864 3.415527855205388e-05
-0.9988969215080965 0.04695677107704367 4.303097980563914e-05
-0.9983394852529955 0.05760442077334986 5.377871624282659e-05
-0.9975396753296437 0.07010414874105915 6.687690171757218e-05
-0.9964066510568089 0.08469816325114894 8.289533023360755e-05
-0.9948216316128299 0.1016361686301515 0.000102476194086426
-0.9926322277421035 0.1211661854191248 0.0001263278548823881
-0.9896471154406964 0.1435219941848099 0.0001551938265451276
-0.9856319602172582 0.1689070838412017 0.0001898066024478878
-0.980307783952944 0.1974755565725176 0.0002308195009723604
-0.973353117457306 0.2293112100411258 0.0002787213984407152
-0.9644111548768279 0.2644069079485791 0.0003337337471863378
-0.9531026040366433 0.3026471040402013 0.0003957204170727015
-0.9390440696551045 0.3437964802634296 0.0004641164253020637
-0.9218710071250569 0.3874965249447682 0.0005379386224906278
-0.9012645233568252 0.4332688306171334 0.0006159172478849272
-0.8769845158928473 0.4805181298712606 0.0006969571105734975
-0.8489217359229499 0.5285179989669776 0.0007816939981523934
-0.8172081273499563 0.576342002249616 0.0008792247044785212
-0.7824979313637376 0.622652311011905 0.001042594362570669
-0.7467658501303825 0.6650851777281285 0.001572083137221672
-0.7160249369304088 0.6980636480116947 0.003928488056315408
-0.8413297645967807 0.5405086557386255 -0.003823646838999317
-0.8655341694426316 0.5008491894774318 -0.0008312202194095125
-0.89190626067011 0.4522203052149712 -0.000133149312752328
-0.9154065270996895 0.402530603396943 5.892519108659463e-05
-0.9348994678423499 0.3549126201508992 0.0001307123319588073
-0.9505053666995221 0.3107080975426671 0.0001612353030672022
-0.9627398512041261 0.2704291946556029 0.000171992379476977
-0.9721958179069955 0.2341693024669698 0.0001715409002876905
-0.9794259750857726 0.2018036974256199 0.0001644160327943076
-0.9849049307490325 0.1730960827152568 0.0001534108071438127
-0.9890234649785984 0.1477584719062221 0.0001403626210977132
-0.9920954051397296 0.1254858203042919 0.0001265037321396613
-0.9943686778212447 0.1059760344448213 0.0001126560212329818
-0.9960368820639157 0.08894110240647382 9.935347879521433e-05
-0.9972498613656886 0.07411279546208763 8.691898261878314e-05
-0.9981227592015754 0.06124501497123881 7.553148997625298e-05
-0.9987434932107186 0.05011417475524071 6.525221795704077e-05
-0.9991787889286483 0.0405184477828652 5.607447075317659e-05
-0.9994789794214373 0.03227642169715082 4.79281733441064e-05
-0.9996817851229469 0.02522551953400036 4.071409686522667e-05
-0.9998152719285101 0.01922032364513211 3.431465205228653e-05
-0.9999001522557681 0.01413098371528355 2.860296745389425e-05
-0.9999515690534942 0.00984169684139987 2.346777357031276e-05
-0.9999804726432314 0.006249318231555226 1.881116636335086e-05
-0.9999946792083034 0.00326210715447585 1.456002425574198e-05
-0.9999996810779547 0.0007985799265299609 1.068126760983228e-05
-0.9999992636449808 -0.001213531251293533 7.169213144358874e-06
-0.999995972327511 -0.002838188225805814 4.043531923240368e-06
-0.9999914635714494 -0.004131922357644462 1.363971107171076e-06
-0.9999867665419695 -0.005144583585086814 -8.198442402060072e-07
-0.9999824767572857 -0.00591998077279837 -2.452337418777971e-06
-0.9999788971874086 -0.0064965504281614 -3.519636872021308e-06
-0.999976140349081 -0.00690787346676398 -4.089238620596769e-06
-0.9999742009305003 -0.007183136887364175 -4.226621237936207e-06
-0.9999730064225174 -0.007347544486129173 -4.041774948369796e-06
-0.9999724513277053 -0.00742270648668675 -3.751269315009863e-06
-0.9999724185574137 -0.007427120009794709 -3.577180559361975e-06
-0.9999727929727981 -0.00737653721460395 -3.592059196636823e-06
-0.9999734699627492 -0.007284185369679619 -3.76285489808951e-06
-0.9999743588558875 -0.00716111822780754 -4.060007296754414e-06
-0.9999753821450507 -0.007016771644209794 -4.421792287495881e-06
-0.9999764751760347 -0.006859232607742352 -4.748196356321239e-06
-0.9999775866150056 -0.006695240365326532 -4.907036127126225e-06
-0.9999786771347646 -0.006530333290742386 -4.787273045589379e-06
-0.9999797181736843 -0.006368926251267123 -4.436761759623172e-06
-0.9999806906240437 -0.006214367422570598 -4.073978306666763e-06
-0.9999815826122082 -0.006069136756416603 -3.926196003203722e-06
-0.9999823878547005 -0.005934978013860621 -4.047925428964256e-06
-0.9999831044447175 -0.005812986003439049 -4.339235081201699e-06
-0.9999837340909598 -0.005703641995409478 -4.635560100947628e-06
-0.9999842816333427 -0.00560682297054664 -4.735400629949755e-06
-0.9999847543424955 -0.005521871213292566 -4.569703044979646e-06
-0.99998516203883 -0.005447539225088918 -4.308748506454924e-06
-0.999985517513816 -0.005381890459175723 -4.208431927704484e-06
-0.9999858366038726 -0.00532227133369997 -4.416203281633302e-06
-0.9999861388173579 -0.005265182778518152 -4.843602733089581e-06
-0.9999864476273678 -0.005206201498029121 -5.249716227543112e-06
-0.9999867905001887 -0.005139921719406055 -5.463475168911129e-06
-0.9999871999744775 -0.005059630178278945 -5.446364530170447e-06
-0.9999877140337983 -0.00495699038266224 -5.272959560847965e-06
-0.9999883746761001 -0.004821875837552404 -5.104722680801583e-06
-0.9999892250417453 -0.004642173516171355 -5.045282102324555e-06
-0.9999903042376954 -0.004403567308665346 -5.055569388451185e-06
-0.9999916396188757 -0.004089091093747326 -5.136065086966578e-06
-0.9999932347282631 -0.003678378525183362 -5.397206169440062e-06
-0.9999950484179969 -0.003146920058744276 -5.79925045947276e-06
-0.9999969606820505 -0.002465479515299205 -6.117263447357677e-06
-0.9999987209216614 -0.001599411482061517 -6.160474645067836e-06