# OOMMF: rectangular mesh v1.0
# Segment count: 1
# Begin: Segment
# Begin: Header
# Title: 
# Desc: time = 1.5368249199759492e-10
# Desc: stepsize = 4.629557549730955e-13
# Desc: step = 320
# meshunit: m
# valueunit: (none)
# valuemultiplier: 800000.0000000002
# xmin: 0
# ymin: 0
# zmin: 0
# xmax: 4e-07
# ymax: 1e-07
# zmax: 4e-09
# ValueRangeMaxMag: 1
# ValueRangeMinMag: 0.9999999999999996
# meshtype: rectangular
# xbase: 2e-09
# ybase: 2e-09
# zbase: 1e-09
# xstepsize: 4e-09
# ystepsize: 4e-09
# zstepsize: 2e-09
# xnodes: 100
# ynodes: 25
# znodes: 2
# End: Header
# Begin: Data Text
-0.9444052458457345 0.3287781819284552 -0.001907539482415858
-0.9511962343803869 0.3085850703308368 0.000988973955145384
-0.9594415184366977 0.2819039808069899 0.001455439815181165
-0.9674219374063455 0.2531654829321551 0.001425930110817008
-0.9744240907621915 0.224713140816708 0.001302185304088057
-0.9802511787773954 0.1977530617026194 0.001163225157130838
-0.9849473337121768 0.1728516506353981 0.001027952280782876
-0.9886525644604002 0.1502174866006074 0.0009019452699830712
-0.9915317648924082 0.1298620039248592 0.0007868582879607506
-0.9937426674025595 0.1116917394629582 0.0006828758189820285
-0.9954233647356551 0.09556137989873306 0.0005895847661008475
-0.9966892132955038 0.08130409425872637 0.0005063172502625284
-0.9976339204815886 0.06874862779126374 0.00043229776021738
-0.9983322460655362 0.05772860609679368 0.0003667476820723487
-0.9988430914773977 0.0480872453255232 0.0003089415434805515
-0.9992124273051469 0.03967944615779394 0.0002582083785818123
-0.9994758552911945 0.03237234870753478 0.0002138436172194779
-0.9996607564446097 0.0260449872796652 0.0001751062309733801
-0.9997880428045938 0.02058760508753656 0.0001413567087282051
-0.9998735651555453 0.01590097909607647 0.0001121022970638571
-0.9999292409978872 0.01189560613034285 8.690328291556473e-05
-0.9999639502835062 0.008490810610962438 6.53343275553183e-05
-0.9999842404308849 0.005613971557643697 4.704483192777921e-05
-0.9999948799589161 0.003199851891134963 3.168323087854304e-05
-0.9999992919327532 0.001189865183373137 1.883712537915583e-05
-0.9999998901635025 -0.0004686225012998795 8.119956582022737e-06
-0.9999983388855377 -0.001822697348009742 -7.364358630459786e-07
-0.9999957532702602 -0.002914340045932731 -7.971260863780178e-06
-0.9999928521846498 -0.003780924342268595 -1.381037245936694e-05
-0.9999900737542402 -0.004455564598154335 -1.836029443798379e-05
-0.9999876620949051 -0.004967412237021683 -2.176310483068434e-05
-0.9999857303702545 -0.005342140811473843 -2.423671894202355e-05
-0.9999843063866495 -0.005602348229480219 -2.597550664947535e-05
-0.9999833660271141 -0.005767749235591664 -2.716316151826276e-05
-0.9999828555625185 -0.005855578268398561 -2.800309162104247e-05
-0.9999827072713444 -0.005880845064041044 -2.862874372709618e-05
-0.9999828504926298 -0.005856438839505737 -2.906464087489316e-05
-0.9999832177244851 -0.005793393390931002 -2.936669856224646e-05
-0.9999837482114204 -0.005701091162162483 -2.953978125197285e-05
-0.9999843899726342 -0.005587391011481662 -2.95422249456241e-05
-0.9999851000161929 -0.005458834963470851 -2.943544562417384e-05
-0.9999858435189546 -0.005320893340835144 -2.925303330786522e-05
-0.9999865933059991 -0.005178065819400534 -2.902812054964821e-05
-0.999987328760355 -0.005034032787514149 -2.885521323623158e-05
-0.9999880343830269 -0.004891856944377149 -2.874726494361792e-05
-0.9999886994428836 -0.004753962841263852 -2.870250983792443e-05
-0.9999893170398036 -0.004622226985572529 -2.870470835938704e-05
-0.9999898831753115 -0.004498080191287573 -2.866390093906972e-05
-0.9999903969055238 -0.004382383324760537 -2.851538538938823e-05
-0.9999908595355651 -0.004275517595550742 -2.818884813958826e-05
-0.9999912742916989 -0.004177388766202608 -2.763258842485179e-05
-0.9999916466541828 -0.004087285187337471 -2.686360259385447e-05
-0.9999919836305733 -0.004003998415957044 -2.590899637814733e-05
-0.9999922939803948 -0.003925730854500927 -2.484120995377289e-05
-0.9999925884182409 -0.003850005792716629 -2.374830461736416e-05
-0.999992879068239 -0.003773764555210112 -2.266926910738946e-05
-0.9999931799158206 -0.003693190155736818 -2.164066467324258e-05
-0.9999935066003999 -0.003603655240764328 -2.063834602678887e-05
-0.9999938758672732 -0.003499692149937447 -1.956538198595356e-05
-0.9999943054511947 -0.003374718989875976 -1.835542288731491e-05
-0.9999948127916621 -0.003220885640420662 -1.689554116803714e-05
-0.9999954129590759 -0.003028833629557486 -1.508812620296906e-05
-0.9999961154573103 -0.002787275157858185 -1.29415511363433e-05
-0.999996918207894 -0.002482632915832797 -1.041724933008427e-05
-0.9999977978011614 -0.002098651110152145 -7.506316878811347e-06
-0.999998694545174 -0.001615824900710261 -4.22344133754559e-06
-0.9999994890641806 -0.001010876450147207 -4.241868546184402e-07
-0.9999999671556121 -0.0002562655027313758 4.094653806769582e-06
-0.999999768333184 0.0006806186851394294 9.580349247942569e-06
-0.9999983102819964 0.001838250153395116 1.641721440014647e-05
-0.99999468008434 0.003261775272786113 2.500175809978243e-05
-0.9999874780609427 0.005004243188232019 3.565709130789331e-05
-0.999974595511838 0.007127829623462125 4.874212035918441e-05
-0.9999529031314981 0.009705016066898567 6.466861495372932e-05
-0.9999178167372921 0.01282001339612265 8.383227268446429e-05
-0.9998626999150191 0.01657015141423711 0.0001067743284769323
-0.9997780568673524 0.02106701163538125 0.0001342657631431827
-0.9996504548615749 0.02643747635404949 0.0001671498594774376
-0.9994611030950578 0.03282469847796434 0.0002063245994839495
-0.9991840232239697 0.04038841197162617 0.0002528089621200504
-0.9987837470743308 0.04930448188666538 0.0003076459755799317
-0.9982124875864264 0.05976362913478199 0.0003718321638315961
-0.9974067954890753 0.07196863874063329 0.0004464863195798581
-0.9962837961551581 0.08612963223628863 0.0005328878950613801
-0.9947371951231989 0.1024573705466124 0.0006323441343920723
-0.9926333778405639 0.1211545317181329 0.0007460837697924864
-0.9898081025620108 0.1424048950763604 0.0008751919116133083
-0.9860643936164408 0.1663609635322907 0.00102051675557331
-0.9811722520328299 0.1931310783445935 0.001182547368558453
-0.974870664000497 0.2227674461526933 0.001361398485395537
-0.9668721262496236 0.2552564744324504 0.001556837129387208
-0.9568694757128453 0.2905127876177367 0.001768241950634513
-0.9445445043291545 0.3283773760116984 0.00199455891439767
-0.929578365647669 0.3686177827484655 0.002234359284664782
-0.9116661219309806 0.4109242048613473 0.002485957038084389
-0.8905439404955903 0.4548889295453912 0.002748058157025075
-0.8660532783731071 0.4999425759163541 0.003023211093109623
-0.8383132684189925 0.5451786067237394 0.003339275883801682
-0.8082562565941316 0.5888180304247657 0.003892392983841952
-0.7799056686136877 0.6258702788639956 0.005791554104118244
-0.9256947775520695 0.3782571026399706 -0.003277669177720169
-0.9369215416591837 0.3495397249723797 -7.376456440722565e-05
-0.9487837046207136 0.3159259020078999 0.0005534317383661104
-0.9594281507330605 0.2819525162778079 0.0006341494710603076
-0.96841738027111 0.2493339346589436 0.0006054885046736071
-0.9757470613268659 0.2189003574006438 0.0005530297054067219
-0.9815850090068879 0.1910251911121668 0.0004964408400040656
-0.9861571371347634 0.1658128646285226 0.0004413636264882413
-0.9896920905087916 0.1432110824325739 0.0003896829838028972
-0.9923965183814425 0.1230814093477823 0.000342019523435948
-0.9944464891119463 0.1052430101321411 0.0002985150731378541
-0.9959868760294622 0.08949902594314356 0.0002590990173496185
-0.9971342588561324 0.07565196510281753 0.0002235878196780916
-0.9979810420713888 0.0635122263259072 0.0001917634782780782
-0.99859967500073 0.05290238542418405 0.0001634162404528181
-0.9990464817520268 0.04365899861539634 0.0001383430447232899
-0.99936493907726 0.03563292053868929 0.0001162625796184753
-0.9995883885075535 0.02868874670880825 9.681502863745878e-05
-0.9997422293539763 0.02270393124298356 7.970228799740096e-05
-0.9998456699012679 0.01756793069157754 6.473716299152409e-05
-0.9999131224925467 0.01318122864423341 5.17555134215905e-05
-0.9999553062704392 0.009454301391153049 4.058074638327675e-05
-0.9999801119867062 0.006306715855495333 3.108330633650919e-05
-0.9999932786879915 0.003666339440148002 2.310736488213886e-05
-0.9999989216140236 0.001468503097266919 1.64147088355378e-05
-0.9999999405023876 -0.0003447885563031022 1.077367733690012e-05
-0.9999983340423897 -0.001825342640965709 6.057073694876171e-06
-0.9999954419481235 -0.003019284405432161 2.157674814725537e-06
-0.9999921289906673 -0.003967613343655996 -1.033110258037358e-06
-0.9999889238358181 -0.004706611654122917 -3.524104183637522e-06
-0.9999861229365904 -0.0052681975464991 -5.37185676030546e-06
-0.9999838660826035 -0.005680451514809701 -6.713944424829236e-06
-0.9999821909695745 -0.005968055363394278 -7.672603803176087e-06
-0.9999810730055956 -0.006152524726641622 -8.370528529601771e-06
-0.9999804519804328 -0.006252645580011015 -8.958791850366119e-06
-0.9999802506600325 -0.006284759271934288 -9.528502786449872e-06
-0.9999803878258978 -0.00626289567132307 -1.006859087802104e-05
-0.9999807856014985 -0.006199057626792981 -1.059947993851073e-05
-0.9999813737685807 -0.006103441062884139 -1.109474826363715e-05
-0.9999820921403426 -0.005984585754305173 -1.148791411523037e-05
-0.999982890863249 -0.005849601790331827 -1.181834830903372e-05
-0.9999837295315011 -0.005704430366348093 -1.210226088041765e-05
-0.9999845765516695 -0.005553963092198784 -1.235912675204778e-05
-0.9999854078997924 -0.005402205749235487 -1.266997728123894e-05
-0.9999862055143028 -0.005252486186773368 -1.303700522905738e-05
-0.9999869568269142 -0.005107445067717484 -1.345091299161083e-05
-0.9999876536953156 -0.004969131112026519 -1.388987699696404e-05
-0.9999882913665382 -0.004839103887427317 -1.42617611147659e-05
-0.9999888685764829 -0.004718316734771378 -1.450226550473531e-05
-0.9999893866672389 -0.004607205376372787 -1.454301434711466e-05
-0.9999898492280088 -0.004505689227437507 -1.433629640235295e-05
-0.9999902624230321 -0.004413033635119754 -1.390143978314139e-05
-0.9999906342169723 -0.004327967457379094 -1.326743889517119e-05
-0.9999909746333507 -0.004248587447148974 -1.251177437590412e-05
-0.9999912959793721 -0.004172268925975661 -1.172625212952671e-05
-0.9999916122746362 -0.004095761264547189 -1.09561609681436e-05
-0.9999919397752134 -0.004015006790112754 -1.025090636109438e-05
-0.9999922967896577 -0.003925082060197217 -9.600284107264817e-06
-0.9999927031148876 -0.003820161947927675 -8.925899909757293e-06
-0.9999931799569934 -0.003693233334881389 -8.187434074948306e-06
-0.9999937485808463 -0.003535922217106592 -7.300757461142689e-06
-0.9999944280442923 -0.003338239343686066 -6.200990663614706e-06
-0.9999952316813335 -0.003088137015627288 -4.936424219016864e-06
-0.9999961604438513 -0.002771116238095071 -3.514210573791683e-06
-0.9999971919826703 -0.002369814944504796 -1.975490602203786e-06
-0.9999982638575914 -0.00186340592616054 -3.959548548228778e-07
-0.9999992471994802 -0.001227028443627422 1.292578482025906e-06
-0.9999999070012744 -0.0004312622871065591 3.206519845840802e-06
-0.9999998438983303 0.0005587246188399986 5.487695708549404e-06
-0.9999984085826887 0.001784029624219469 8.389823039758636e-06
-0.9999945783552968 0.003292888114303487 1.216051267228042e-05
-0.9999867798608258 0.005141966183500371 1.695122328001e-05
-0.9999726366588385 0.007397662358511342 2.291723573195031e-05
-0.9999486150311104 0.01013737555970791 3.023450660610003e-05
-0.9999095303739023 0.01345100531299664 3.903218512631687e-05
-0.9998478682086902 0.0174424190981819 4.954331831715513e-05
-0.9997528662696383 0.02223066618767035 6.218114353102481e-05
-0.9996092891119195 0.02795108463202846 7.738898744826248e-05
-0.999395813018125 0.03475629120641828 9.562120755127002e-05
-0.999082947458126 0.04281647247168001 0.0001174030014172794
-0.9986304211429144 0.0523188441242794 0.0001432390455127261
-0.9979839761031484 0.06346615885799332 0.0001735544928570778
-0.9970715898622852 0.07647353177889803 0.0002088701897006898
-0.9957992434911612 0.09156311614467028 0.0002498485704712625
-0.994046470902507 0.1089565297211883 0.0002971824130176559
-0.9916620955217021 0.1288649088799909 0.0003515179333030831
-0.9884607734334673 0.151476494782377 0.0004134147499917085
-0.9842211043378435 0.1769423189142621 0.0004832734618019774
-0.9786861000039327 0.205361151809957 0.0005612364739209592
-0.9715666429435871 0.2367653679539275 0.0006471916015437478
-0.9625482281521754 0.2711094975803841 0.0007408122695847976
-0.9513006997073867 0.3082633136808068 0.0008415312021575987
-0.937490193807527 0.348010397588501 0.0009485172735928787
-0.920792864139226 0.3900504788823826 0.001060789283635999
-0.9009123222807234 0.4339995403804108 0.001177502588413325
-0.8776095092637851 0.4793744480846177 0.001299143312337893
-0.8507728194539035 0.5255316887202872 0.001433118717441477
-0.8206193921079098 0.5714728080953277 0.001625701105618778
-0.7883797100665493 0.6151851422936783 0.002161817866950922
-0.7591870756194855 0.6508566994804241 0.004532212901220642
-0.9003120922217154 0.4352307865924948 -0.003506993218617265
-0.916170978473645 0.4007875096446327 -0.0003321377677431033
-0.9328011660173786 0.3603912769153771 0.0003349625683836643
-0.947346393238872 0.3202102506261233 0.0004545451080609841
-0.9593493399508076 0.2822208982910805 0.0004566220808939772
-0.9689732328404848 0.24716530964643 0.0004286560902489481
-0.9765493895868508 0.2152931396337414 0.0003920767717508105
-0.9824340837814058 0.1866096084564027 0.0003536330543441102
-0.9869563866200112 0.1609875495213271 0.0003159257641939803
-0.9904001409497447 0.1382298171967235 0.0002800794275562524
-0.9930008377616656 0.1181070505306546 0.0002466162586989041
-0.9949490777662882 0.1003807058045879 0.0002157641881348973
-0.9963965520186818 0.08481671969117127 0.0001875796126316686
-0.9974625371897471 0.07119312218199035 0.0001620400316720168
-0.9982399726132121 0.05930377500774239 0.0001390935085545771
-0.9988007440771738 0.04895977481220798 0.0001186643240487025
-0.999200097437843 0.0399894381604361 0.0001005774209436174
-0.9994802349242088 0.03223744476666424 8.456219310927685e-05
-0.9996731934034662 0.025563674134143 7.039374217565916e-05
-0.9998031247096861 0.0198420881698895 5.794657492743943e-05
-0.9998880989420289 0.01495952453790302 4.711364041603554e-05
-0.9999415213170794 0.01081445881503587 3.7770651834021e-05
-0.9999732378968045 0.007315914188775087 2.982889608794061e-05
-0.9999903965459418 0.004382496928625919 2.316376659935776e-05
-0.9999981153034735 0.001941412113640497 1.756432337764738e-05
-0.9999999972929215 -7.245520834519512e-05 1.28218261654505e-05
-0.9999985256657102 -0.001717145432917699 8.829930376937495e-06
-0.9999953663120824 -0.00304422798601038 5.507535290844816e-06
-0.9999915972540268 -0.004099440652028992 2.771348327025961e-06
-0.9999878810538475 -0.004923184441054682 6.284759093957816e-07
-0.9999845933218804 -0.005550956489246095 -9.629538596529575e-07
-0.999981916141839 -0.006013932556151245 -2.122667958072664e-06
-0.9999799054122926 -0.006339460770476921 -2.960040128437155e-06
-0.9999785396413529 -0.006551354352313715 -3.591244094011381e-06
-0.9999777528270841 -0.006670369824326282 -4.159539539920097e-06
-0.9999774572864347 -0.00671452875340686 -4.751391646859753e-06
-0.9999775594729743 -0.006699292634667284 -5.354320365517949e-06
-0.9999779690411706 -0.006637875904580787 -5.980834076114377e-06
-0.999978604210535 -0.006541488945892441 -6.596989519664263e-06
-0.9999793946332161 -0.00641952164302811 -7.13167018194781e-06
-0.9999802818704059 -0.006279793977066197 -7.615021404434882e-06
-0.9999812184945635 -0.00612883294207224 -8.055793610285986e-06
-0.9999821673069952 -0.005972017772071915 -8.469601112480543e-06
-0.9999830999132121 -0.005813760245159522 -8.931642300715301e-06
-0.9999839949318438 -0.005657719594401173 -9.441442359038104e-06
-0.9999848373535792 -0.005506810613585495 -9.990080928308299e-06
-0.9999856173257375 -0.005363304043408763 -1.055466702471562e-05
-0.9999863290053906 -0.005228927265295141 -1.104431650581861e-05
-0.9999869705704477 -0.00510475851022381 -1.13969377049323e-05
-0.9999875432532919 -0.004991312949362901 -1.154498532764666e-05
-0.9999880509441141 -0.004888541503078146 -1.144394709077125e-05
-0.9999885004969311 -0.00479570123714438 -1.111497848415945e-05
-0.9999889009239084 -0.00471146653539854 -1.058674114722049e-05
-0.9999892636910546 -0.004633832523027842 -9.938337162445202e-06
-0.999989602971319 -0.004560028895495389 -9.259366239605282e-06
-0.9999899350798247 -0.004486609545153941 -8.592864969718218e-06
-0.9999902790946663 -0.004409268908563854 -7.991419382667247e-06
-0.9999906567346615 -0.004322775489421279 -7.446370463717295e-06
-0.9999910918215296 -0.004220927646147034 -6.884123423632351e-06
-0.9999916102862669 -0.004096256546276843 -6.275761710629196e-06
-0.9999922388231802 -0.003939830278052199 -5.548253025394997e-06
-0.9999930024803871 -0.003740984983993779 -4.648607230493144e-06
-0.9999939208796366 -0.003486859694064105 -3.639300122875402e-06
-0.9999950009690084 -0.003161966244894719 -2.541355946120573e-06
-0.9999962249122962 -0.002747755298606672 -1.405422465991873e-06
-0.9999975313964468 -0.002221981302973005 -3.183610943666087e-07
-0.999998786186367 -0.001558083823242978 7.696355688464774e-07
-0.9999997374590104 -0.0007246227087469023 1.959511856924558e-06
-0.9999999501865054 0.0003156194206186875 3.37162100292021e-06
-0.9999987094736799 0.001606556467919366 5.223956220940741e-06
-0.9999948807864197 0.003199740805867237 7.728438872722123e-06
-0.9999867091456229 0.00515571635713995 1.099780193659942e-05
-0.9999715329282093 0.007545402846588766 1.513569980373637e-05
-0.9999453817630133 0.01045146307286788 2.025974647364013e-05
-0.9999024160764579 0.01396988279424717 2.644195525883747e-05
-0.9998341558502906 0.01821152518188811 3.384797953572495e-05
-0.9997284369076082 0.02330344622362531 4.280622589553442e-05
-0.9995680168308338 0.02939008077703971 5.367301758281809e-05
-0.9993287375119266 0.03663427246303595 6.681259096050394e-05
-0.9989771588955012 0.04521757594884193 8.264612783778079e-05
-0.9984675813733811 0.05533966597749614 0.000101567165436889
-0.9977383952011945 0.06721666007181931 0.0001238956606430259
-0.9967077820512963 0.08107758434371139 0.0001500512366350103
-0.9952689090226275 0.09715845881467058 0.000180592541730929
-0.9932849021908372 0.1156938043880004 0.0002161156393115735
-0.9905841012673118 0.1369053401808267 0.0002571894323729237
-0.9869563636583639 0.1609877126554577 0.0003043159912845009
-0.9821513813170466 0.188091828958456 0.0003578492414846624
-0.9758800429798686 0.2183070477133476 0.0004178902863072372
-0.9678197132482607 0.2516441299090914 0.0004842833368477013
-0.957623882262017 0.2880211628806576 0.0005566455746472981
-0.9449358936919424 0.3272548768627643 0.0006343359885742135
-0.929405766800106 0.3690588128679505 0.0007164378588964753
-0.9107094529440185 0.4130467882269466 0.0008019063597916949
-0.8885727395502702 0.4587348847549598 0.0008899645954645731
-0.8628107984621506 0.5055260255260785 0.000981617497892508
-0.8334192012514886 0.552640258211789 0.001086272957101401
-0.8008281270195983 0.5988929209274944 0.001257074864854607
-0.7666970373452605 0.6420065574185303 0.001798098330729812
-0.7367866065002363 0.6761122625597294 0.004207718886641749
-0.8713365407866399 0.4906733161018644 -0.003511346689171984
-0.8916212613765703 0.4527817736239934 -0.0004378757405100162
-0.91327165841458 0.4073509839187866 0.0002320281842661953
-0.932282446496654 0.3617309773671142 0.0003741219655087623
-0.9479200032516198 0.3185082566444726 0.0003973471367470793
-0.9603905526497056 0.2786572043688803 0.0003857907622509308
-0.9701548199033037 0.2424860714988794 0.0003613134766127842
-0.9777031734115407 0.2099914157735223 0.0003316661482350278
-0.983480511050065 0.1810137955654646 0.0003003326264841351
-0.98786473307395 0.1553164406304604 0.0002691070749916303
-0.9911657155921784 0.1326290583312013 0.0002389996302978661
-0.9936320650784222 0.1126733105041306 0.0002105897180924773
-0.9954602904801942 0.09517760320486511 0.0001841881211853997
-0.9968040530176552 0.07988525709417862 0.0001599580326998058
-0.9977825160135791 0.06655848329747528 0.0001379809799431545
-0.9984874589437034 0.05497981759702317 0.0001182757107220984
-0.9989891424410411 0.04495200926633223 0.000100736452156923
-0.9993410434907017 0.03629699086257789 8.514245068324308e-05
-0.9995836199018331 0.02885449254588482 7.130123922474105e-05
-0.9997472757707166 0.0224806827108116 5.910910128957297e-05
-0.999854692768383 0.01704672985472071 4.847991405079977e-05
-0.9999226524091216 0.01243734915455271 3.930794252107214e-05
-0.9999634518509235 0.008549501120913842 3.15114081713842e-05
-0.9999860010543833 0.005291225940985201 2.496605543143907e-05
-0.9999966703356233 0.002580491969381944 1.94643821881004e-05
-0.99999994067798 0.0003441293519377666 1.479950659969344e-05
-0.9999989004120287 -0.001482921697162442 1.086156369863443e-05
-0.999995624079774 -0.002958338044031584 7.570980168949062e-06
-0.9999914584744416 -0.004133153109308624 4.851140684306302e-06
-0.9999872367969573 -0.005052349535167491 2.712986456498538e-06
-0.9999834376452313 -0.0057553830428444 1.120400974350454e-06
-0.999980300486851 -0.006276833455245254 -3.940241040527775e-08
-0.9999779086615497 -0.006646968339137035 -8.783868704103332e-07
-0.9999762491261062 -0.006892110081043117 -1.521152978822445e-06
-0.9999752529632877 -0.007035158601465035 -2.112107757197609e-06
-0.99997482341511 -0.007095951551093281 -2.739285213478533e-06
-0.9999748550620745 -0.007091490114637087 -3.396595688558208e-06
-0.999975245015304 -0.007036287359870435 -4.095295040191824e-06
-0.9999758995823975 -0.00694263864357046 -4.799903045059939e-06
-0.9999767377657709 -0.00682084289088482 -5.439129774684257e-06
-0.9999776920155538 -0.006679478635517185 -6.033563455281788e-06
-0.9999787073963823 -0.006525696171018593 -6.583612677975979e-06
-0.9999797406540183 -0.006365393239130048 -7.101616053734807e-06
-0.9999807586083128 -0.00620341474557395 -7.657484577199116e-06
-0.9999817361944783 -0.006043774434544985 -8.249873874993882e-06
-0.9999826556215441 -0.005889683977295473 -8.873062738760057e-06
-0.999983505014429 -0.005743658131539622 -9.503945547516468e-06
-0.9999842771692119 -0.005607612084950846 -1.005352721807718e-05
-0.999984969456051 -0.005482768688669874 -1.046359723444095e-05
-0.9999855827826181 -0.005369740508886695 -1.066650226849786e-05
-0.9999861211559476 -0.00526852756455538 -1.061994138844412e-05
-0.9999865919550891 -0.005178397722790115 -1.034746058456725e-05
-0.9999870051202259 -0.005097989127959907 -9.875847041817832e-06
-0.9999873734702737 -0.005025217789943338 -9.283676142585552e-06
-0.9999877129921386 -0.004957195759038711 -8.657869293053261e-06
-0.9999880423328436 -0.004890309470458248 -8.038016786101175e-06
-0.9999883835130908 -0.004820039727130053 -7.476902614438158e-06
-0.9999887619018161 -0.004740888265547382 -6.966107928747276e-06
-0.9999892057730796 -0.004646320684286318 -6.436114037719743e-06
-0.9999897464323995 -0.004528465043743906 -5.866219644724834e-06
-0.9999904169635229 -0.004377893804044794 -5.192260623041614e-06
-0.9999912497929685 -0.004183338187481933 -4.370986421590338e-06
-0.9999922727684739 -0.003931207356693021 -3.472841739309157e-06
-0.9999935015131182 -0.003605124845781705 -2.525725351966175e-06
-0.9999949263652856 -0.0031854734626995 -1.582635902145248e-06
-0.9999964921021501 -0.002648732311973314 -7.302827224125989e-07
-0.9999980658184865 -0.001966814500601397 7.561147709018742e-08
-0.9999993878645825 -0.001106467165083499 9.339082238215704e-07
-0.9999999995966716 -2.833395700435122e-05 1.96049823095136e-06
-0.9999991366710239 0.001314019000150303 3.357615628057497e-06
-0.9999955743467287 0.002975106487551102 5.323849180730227e-06
-0.9999874050655352 0.005018928864826125 7.959047793603711e-06
-0.9999717211289212 0.007520426432526837 1.134617093517713e-05
-0.9999441682467105 0.01056693648380753 1.558016119976344e-05
-0.9998983230456563 0.01425984366316789 2.071680177056461e-05
-0.999824835901886 0.01871621730185924 2.69012208368431e-05
-0.999710269449585 0.02407022998622025 3.443034613015253e-05
-0.9995355456556466 0.03047443300373688 4.363449358993479e-05
-0.9992738975305472 0.03810084913723349 5.485554392117353e-05
-0.9988882273058766 0.04714132644980756 6.848558793686061e-05
-0.9983277759264854 0.05780695985299265 8.488952366906194e-05
-0.9975240339269409 0.07032631687048414 0.0001043721940353999
-0.9963859182448996 0.08494166060155117 0.0001273480206016847
-0.9947943704203278 0.1019025846056175 0.0001543720117867474
-0.9925967076556773 0.1214567467762997 0.0001860473786047373
-0.9896013198170477 0.1438373320815379 0.0002229709000431493
-0.9855736341908818 0.1692469822387427 0.0002656893980568019
-0.9802345356739095 0.197838712327715 0.0003146055722393022
-0.9732625682778488 0.2296950943972917 0.000369863521399384
-0.9643011124631042 0.2648078141895508 0.0004313311617809932
-0.9529712686530254 0.3030602456725983 0.0004986127828782943
-0.9388902855623558 0.3442160740453585 0.0005710038861735094
-0.9216944925822993 0.3879160258732562 0.0006474674944672322
-0.9010659751124113 0.4336814271585417 0.0007267960163453707
-0.8767655449082911 0.4809173798960352 0.0008080690560008305
-0.8486846613764832 0.5288984300461844 0.0008923222314981221
-0.8169556562606241 0.5766996416065031 0.0009894820379028337
-0.782232750347809 0.6229852268725417 0.001153855220410622
-0.7464902590749968 0.6653942044453462 0.00168694892869046
-0.7157411761601106 0.6983539029035276 0.004049079938916455
-0.8407916479173596 0.5413477056850959 -0.00347366404436937
-0.8650597184222588 0.5016686276101707 -0.0005211860797997499
-0.891508087613415 0.4530047577943895 0.0001383311870243088
-0.9150819312712433 0.4032678650109096 0.0002968340176807137
-0.9346399090133305 0.3555954514446123 0.0003396931777245513
-0.950300580756687 0.3113337231451133 0.0003450305852128169
-0.9625798381712219 0.2709980513420394 0.0003336391479427023
-0.9720717049364324 0.2346838343311174 0.0003136329407281193
-0.9793302680394748 0.2022675022567368 0.0002891929300251585
-0.9848314806881514 0.1735133585291474 0.0002627879730407858
-0.9889673286273996 0.1481336127281288 0.0002359824085434151
-0.9920526701692505 0.1258231123521169 0.0002097810436886279
-0.9943362809366399 0.106279472417894 0.000184812512598122
-0.9960124362896309 0.08921435244424879 0.0001614755296257536
-0.9972315116871556 0.07435921255415287 0.000140023127707525
-0.9981090648741349 0.06146771569428326 0.0001205960477253435
-0.9987333380506497 0.05031608908413016 0.0001031769549517193
-0.9991713155928695 0.04070226555598713 8.76072139206031e-05
-0.9994735365205917 0.03244448117244288 7.373243439945786e-05
-0.9996778793205812 0.02537979153521204 6.147140899687189e-05
-0.9998125285586824 0.01936246783792559 5.075744852570034e-05
-0.9998982865107642 0.01426235992132924 4.150074143360335e-05
-0.9999503635860086 0.009963394686075305 3.362348365105366e-05
-0.9999797605837477 0.006362208252173472 2.700048091697552e-05
-0.9999943320095317 0.003366821886270052 2.142886081473616e-05
-0.9999995989727293 0.000895419094884019 1.670402834758309e-05
-0.9999993675907285 -0.001124569541638333 1.270780414224282e-05
-0.9999961985004591 -0.002757335144172536 9.355913301234227e-06
-0.9999917600125499 -0.004059539845204851 6.576294983775909e-06
-0.9999870915543205 -0.005081014220738212 4.383959198204308e-06
-0.999982798489399 -0.005865383001735201 2.74816096901408e-06
-0.9999791934060961 -0.006450794715059961 1.561303588623312e-06
-0.9999763974004641 -0.006870563404119978 7.064112482729443e-07
-0.9999744125516138 -0.007153617410229018 4.793009477967446e-08
-0.9999731712987068 -0.007325072183272632 -5.62634377559495e-07
-0.999972570499568 -0.00740663533602181 -1.218709514411202e-06
-0.9999724944929052 -0.007416889774845383 -1.924639033261506e-06
-0.9999728287954109 -0.007371679839651929 -2.691621827375853e-06
-0.9999734683384315 -0.007284408492573579 -3.481490550872708e-06
-0.9999743217438559 -0.007166298562555059 -4.22224076248763e-06
-0.999975312443334 -0.007026697631725884 -4.924264852741595e-06
-0.999976377984195 -0.006873386536423099 -5.57948002953794e-06
-0.999977468960686 -0.006712788732881641 -6.197377492515777e-06
-0.9999785472503725 -0.006550190243793529 -6.841345500080994e-06
-0.9999795839268384 -0.006389966599481213 -7.507599373321198e-06
-0.9999805582077064 -0.006235634648488228 -8.193526098739242e-06
-0.9999814559679165 -0.006089962355895828 -8.876308717886398e-06
-0.9999822684064189 -0.005955063649638478 -9.469997400567631e-06
-0.9999829918257512 -0.005832320357610952 -9.922960801010114e-06
-0.9999836265525569 -0.005722457810077359 -1.016896622156439e-05
-0.999984176463335 -0.005625541714154468 -1.016699828509768e-05
-0.9999846492131501 -0.005540869896421339 -9.942007094710608e-06
-0.9999850554442592 -0.005467064805057838 -9.516254569448217e-06
-0.9999854091122612 -0.005401988727599881 -8.964942308952414e-06
-0.9999857278163331 -0.005342667267458935 -8.373004074895541e-06
-0.999986032389707 -0.005285353821176515 -7.776649305046527e-06
-0.9999863476861173 -0.005225360192125696 -7.227839723885271e-06
-0.9999867026831502 -0.005156976993503316 -6.720788100657311e-06
-0.9999871302114026 -0.005073398586552665 -6.192307543238976e-06
-0.9999876672192075 -0.004966425053013762 -5.628470976692594e-06
-0.9999883536988456 -0.00482622439667282 -4.974407482826851e-06
-0.9999892303702304 -0.004641026387876139 -4.197719787690829e-06
-0.9999903347508999 -0.004396634326988602 -3.373099960909438e-06
-0.9999916933373159 -0.004075935469426456 -2.532993834470381e-06
-0.9999933079437521 -0.003658423800998435 -1.733156544527134e-06
-0.9999951342931975 -0.003119517400822782 -1.056317579887487e-06
-0.999997047870419 -0.002429866300021843 -4.593676434929464e-07
-0.9999987914205661 -0.001554720998281706 1.549404379607429e-07