# OOMMF: rectangular mesh v1.0
# Segment count: 1
# Begin: Segment
# Begin: Header
# Title: 
# Desc: time = 1.1748740069334625e-10
# Desc: stepsize = 4.2630885512136953e-13
# Desc: step = 240
# meshunit: m
# valueunit: (none)
# valuemultiplier: 800000.0000000002
# xmin: 0
# ymin: 0
# zmin: 0
# xmax: 4e-07
# ymax: 1e-07
# zmax: 4e-09
# ValueRangeMaxMag: 1
# ValueRangeMinMag: 0.9999999999999996
# meshtype: rectangular
# xbase: 2e-09
# ybase: 2e-09
# zbase: 1e-09
# xstepsize: 4e-09
# ystepsize: 4e-09
# zstepsize: 2e-09
# xnodes: 100
# ynodes: 25
# znodes: 2
# End: Header
# Begin: Data Text
-0.9446983183529521 0.327933952304688 -0.002100054030355812
-0.9514431277769337 0.3078234865554683 0.0008220285154114153
-0.9596394667986001 0.2812300976579069 0.001313748005638149
-0.9675770988680422 0.252572470188935 0.001305775157390888
-0.9745442931475061 0.2241918402290087 0.001199778461934127
-0.9803436956905942 0.1972944037096497 0.001075446214772834
-0.985018260864451 0.1724474379032439 0.000952325668647067
-0.9887067795168651 0.1498606167220742 0.0008364765795347621
-0.9915730927288006 0.129546396830791 0.0007299619169816752
-0.9937740822462531 0.1114121732582644 0.0006333288934969426
-0.995447168185948 0.09531336080853309 0.0005464448359036903
-0.9967071781515451 0.08108379123413163 0.0004688499584309649
-0.9976474101808809 0.06855279004538622 0.0003999204597108176
-0.9983423109345728 0.05755445506802236 0.0003389684936999023
-0.9988505427730214 0.04793236696681976 0.0002853050964088808
-0.9992178931854543 0.03954168905403454 0.0002382535949491026
-0.9994798229743612 0.03224972247414046 0.000197148370748207
-0.9996636012364887 0.02593565740441587 0.0001613626201803751
-0.9997900498964625 0.02048997637249097 0.0001303697945388233
-0.9998749500504731 0.01581371273394638 0.0001036876626704037
-0.9999301671163449 0.01181754462885543 8.080608655031981e-05
-0.9999645420911568 0.008420855681924209 6.123730334662923e-05
-0.9999845918759173 0.005551037652510589 4.462885840956928e-05
-0.9999950605906566 0.003142905066650571 3.06925187578911e-05
-0.9999993523026065 0.001137994302044932 1.906136271937837e-05
-0.999999866751587 -0.000516148827044475 9.337884217289457e-06
-0.9999982581227237 -0.001866480665418627 1.201465347799618e-06
-0.9999956343915554 -0.002954854753396048 -5.587167725291004e-06
-0.9999927097007435 -0.003818431602099674 -1.120109511882474e-05
-0.9999899194095243 -0.004490081203290378 -1.581520128808871e-05
-0.9999875056045634 -0.004998824708034817 -1.96545402104761e-05
-0.9999855794457528 -0.005370323518585189 -2.293135522700422e-05
-0.9999841670634446 -0.005627162590546108 -2.576058735328588e-05
-0.9999832426964155 -0.005789087615563522 -2.812367161802969e-05
-0.9999827517996129 -0.005873261964373323 -2.995281955100718e-05
-0.9999826268027379 -0.005894499039189471 -3.120533393116523e-05
-0.9999827964130856 -0.005865650757107608 -3.192272656291746e-05
-0.9999831916111075 -0.005797883981768002 -3.219622412527624e-05
-0.9999837497000665 -0.00570081631155991 -3.208077698778443e-05
-0.9999844162343547 -0.005582677434670983 -3.164011218761138e-05
-0.999985145971599 -0.005450401753952366 -3.0933476098432e-05
-0.999985903078092 -0.005309684164417041 -2.998610054417724e-05
-0.9999866604328526 -0.005165086933553092 -2.886727696712038e-05
-0.9999873984015197 -0.005020186089388862 -2.77450476969238e-05
-0.9999881031386829 -0.004877792794485007 -2.680583487055872e-05
-0.9999887651577501 -0.004740134354430975 -2.616446751626844e-05
-0.9999893787847636 -0.004608866356925657 -2.585665227656248e-05
-0.9999899411404232 -0.004485192630232167 -2.578841962083571e-05
-0.9999904514751913 -0.004369930775848933 -2.575765576904163e-05
-0.9999909114650061 -0.004263371183998761 -2.556430363861941e-05
-0.9999913246811777 -0.004165325198531581 -2.5067378697745e-05
-0.9999916962375532 -0.004075152473510542 -2.425404003115594e-05
-0.9999920331044888 -0.003991639611794248 -2.325424579831735e-05
-0.9999923438989173 -0.003913010089073774 -2.226189867399252e-05
-0.9999926386343547 -0.003836954069534853 -2.146086048810662e-05
-0.9999929288913079 -0.003760548919607875 -2.095726377336512e-05
-0.9999932279289463 -0.003680172106847327 -2.072462856991701e-05
-0.9999935503743826 -0.00359148795402811 -2.058913856035612e-05
-0.9999939122391817 -0.003489279411733032 -2.034114334798169e-05
-0.999994331026702 -0.003367123519506662 -1.984093190752983e-05
-0.99999482472912 -0.003217165726045741 -1.896489557951413e-05
-0.9999954098674223 -0.003029840349895619 -1.765048649059448e-05
-0.9999960979982851 -0.002793516615796318 -1.590977835014419e-05
-0.9999968893528718 -0.002494212806224093 -1.367688420897397e-05
-0.9999977626277141 -0.002115330463246937 -1.079798835895196e-05
-0.999998659606211 -0.001637295141065963 -7.099456589451197e-06
-0.9999994623192313 -0.001036993335423063 -2.463769133220749e-06
-0.9999999588038118 -0.0002870235762070167 3.137013173067549e-06
-0.9999997918724962 0.0006451047484921713 9.73794628914164e-06
-0.9999983838171239 0.001797792727824327 1.744843620591489e-05
-0.9999948273777878 0.003216289189083386 2.648623354084269e-05
-0.9999877298124016 0.004953669283161244 3.721924354162935e-05
-0.9999749923117053 0.00707193345422608 5.008416804612416e-05
-0.9999534996196714 0.009643355780275307 6.548027403702383e-05
-0.9999186874716228 0.01275191815518296 8.383549312189556e-05
-0.9998639480695969 0.01649467137724995 0.0001056732449218325
-0.9997798242043573 0.02098298780651852 0.0001316685805894338
-0.9996529331589687 0.02634362855464787 0.0001626691264666974
-0.9994645530523443 0.03271952571179208 0.0001995722250897545
-0.99918879323424 0.04027029055971527 0.0002432557063351944
-0.9987902852348655 0.04917193576058897 0.0002947100474192083
-0.99822136319623 0.0596152993815906 0.000355159546634304
-0.9974187341827417 0.07180311477887824 0.000425921762477806
-0.996299705967188 0.08594554981849807 0.0005082874096593085
-0.9947581681557697 0.102253716814948 0.0006035601918270749
-0.9926606789752302 0.1209308395378434 0.00071306739279083
-0.9898431392395428 0.1421613779948655 0.0008380375933202351
-0.9861086502862604 0.1660986769101486 0.0009794688903204075
-0.9812271911461166 0.1928520266414657 0.001138057898902886
-0.9749376240824937 0.2224744978992404 0.001314128175796829
-0.9669522099310527 0.2549532329802148 0.001507548469928123
-0.9569634054896985 0.2902035322005254 0.001717687951030183
-0.9446524858680615 0.328066920029344 0.001943431437310037
-0.9297000357218692 0.3683111144073442 0.00218325050667458
-0.9118005993679679 0.4106260293428791 0.002435368209365229
-0.8906899365222325 0.4546032950451113 0.002698353599610516
-0.8662092168036447 0.4996726384650427 0.002974406461543393
-0.8384774163261485 0.5449264102695975 0.003290851214609846
-0.8084268472532571 0.5885841151076753 0.003843446769981266
-0.7800809306487201 0.6256522799796286 0.005741619503138124
-0.9260426803182331 0.3774029252444202 -0.00346211582371303
-0.9372143771596906 0.3487537194684113 -0.0002332426235797612
-0.9490184128127763 0.3152203633443835 0.0004179418062396542
-0.9596123331740836 0.2813252578833989 0.0005189383685223085
-0.9685603036587044 0.2487783775858809 0.0005069736629073681
-0.9758572415748309 0.2184088476648826 0.0004683243105844049
-0.9816695830979407 0.1905902685380084 0.0004232716912411073
-0.9862218379928968 0.1654277590469513 0.0003778923331785827
-0.9897414345524511 0.1428698039514111 0.0003344382466415148
-0.9924340323710004 0.1227786831561434 0.0002938609857047272
-0.9944749114536485 0.1049742095305003 0.0002565593577419496
-0.9960083213173204 0.08926014951692041 0.0002226541485838998
-0.9971503561412945 0.07543958075348202 0.0001921016078188314
-0.9979930476228117 0.06332337442608263 0.0001647659728819111
-0.9986085596893854 0.05273447433550103 0.000140469387400179
-0.9990529973032846 0.04350970487094906 0.0001190015367809368
-0.9993696681740962 0.03550008887033853 0.0001001189010697132
-0.9995917797046832 0.02857038610610317 8.357375324840994e-05
-0.9997446234220594 0.02259829978402659 6.917770735556945e-05
-0.9998473241705477 0.01747355511156284 5.675172943419076e-05
-0.9999142317564587 0.01309683203795246 4.605931321707707e-05
-0.9999560185307838 0.009378680377028013 3.685712670909784e-05
-0.9999805387701524 0.006238688922058215 2.900842993443826e-05
-0.9999935024939952 0.003604783926813459 2.241947709871823e-05
-0.9999990023776871 0.001412429793585209 1.690291160013593e-05
-0.9999999214490244 -0.0003961723596347317 1.222318072150879e-05
-0.9999982464989277 -0.001872680378472862 8.201825216387856e-06
-0.9999953087554548 -0.003063077660342082 4.725327050304571e-06
-0.9999919673625675 -0.004008142629365347 1.733340200774345e-06
-0.9999887476131177 -0.004743906241611562 -8.478446125993295e-07
-0.9999859435323082 -0.005302143704576534 -3.151963175689881e-06
-0.9999836926055253 -0.005710910155473776 -5.3116968709157e-06
-0.9999820305898681 -0.00599486805276245 -7.375184561915405e-06
-0.9999809309904777 -0.006175562286058931 -9.266490996442803e-06
-0.9999803325845567 -0.00627170837843793 -1.086714762471179e-05
-0.9999801581693715 -0.006299454058602125 -1.208811131817616e-05
-0.9999803257564425 -0.006272793072072153 -1.292724551570254e-05
-0.999980755748258 -0.006203865935742662 -1.343851312415921e-05
-0.9999813756911503 -0.006103120885207531 -1.364896786119466e-05
-0.9999821225726251 -0.005979494141202226 -1.360009110428901e-05
-0.9999829439672445 -0.005840513405886505 -1.333258785115967e-05
-0.9999837982935643 -0.00569236199549306 -1.285642208955301e-05
-0.9999846540198346 -0.005539997772054912 -1.222772630465485e-05
-0.9999854882563293 -0.00538731307334033 -1.160172344890492e-05
-0.9999862848380219 -0.005237366849095568 -1.11507219673363e-05
-0.9999870326736039 -0.005092579317181697 -1.097899599306904e-05
-0.9999877250423386 -0.004954759433469454 -1.111775863891767e-05
-0.9999883584424021 -0.004825230366882911 -1.14706691849797e-05
-0.9999889318577613 -0.004704893398727513 -1.1835537209453e-05
-0.9999894470389199 -0.004594090383786069 -1.201417105513179e-05
-0.9999899079170358 -0.004492652141096148 -1.186662567191508e-05
-0.9999903202443906 -0.004399919087776636 -1.138163103825085e-05
-0.9999906919459811 -0.004314615512132376 -1.069485389062602e-05
-0.9999910328901491 -0.00423485999364542 -1.000630842477014e-05
-0.9999913546143862 -0.004158197469912749 -9.501910139193487e-06
-0.9999916705111462 -0.004081522014821062 -9.293523021166518e-06
-0.9999919959756685 -0.004000986980628081 -9.369047358327344e-06
-0.9999923481317057 -0.003911979857632004 -9.572388101302012e-06
-0.9999927459110992 -0.003808940903289951 -9.714655166556844e-06
-0.9999932102161216 -0.003685027537896411 -9.679862965172283e-06
-0.9999937628978174 -0.003531866027340801 -9.371672738979121e-06
-0.9999944246611092 -0.003339246913637605 -8.76050159441615e-06
-0.999995211204439 -0.003094754572729014 -7.894525959872461e-06
-0.9999961261342343 -0.00278346384742209 -6.747892262712308e-06
-0.9999971495421646 -0.002387651634653147 -5.216973466533324e-06
-0.9999982207207503 -0.001886410651176712 -3.191932501233274e-06
-0.9999992124294735 -0.001255045828144273 -6.338227508835925e-07
-0.999999892220347 -0.0004642774761643078 2.391441774319216e-06
-0.9999998644666629 0.00052060819517373 5.810560733296727e-06
-0.9999984850458346 0.001740636006026732 9.608842162882127e-06
-0.9999947376748437 0.003244137874546659 1.385896582933435e-05
-0.9999870569057369 0.005087796097911036 1.87581477414374e-05
-0.9999730775184961 0.007337822289940595 2.454035799948682e-05
-0.9999492817707507 0.0100713902803211 3.13684730283026e-05
-0.9999105076989659 0.01337815535997704 3.940000538397445e-05
-0.9998492732022757 0.01736169607468789 4.884967466277333e-05
-0.9997548598007867 0.02214083782613794 6.004219585188604e-05
-0.9996120891879702 0.02785077660671854 7.342794801958823e-05
-0.999399716103039 0.0346438948546448 8.945649909949954e-05
-0.9990883496433223 0.04269025453254083 0.0001085123440581839
-0.9986378326140379 0.05217721818190904 0.0001310524081313262
-0.9979940461068055 0.06330765401727995 0.0001577282334650893
-0.9970851458291092 0.07629663262785351 0.0001892527246302935
-0.9958173197438566 0.09136637503764661 0.000226297684170697
-0.9940703107867433 0.1087388824318332 0.0002695548601485364
-0.9916931382177542 0.1286258813791913 0.000319767491159317
-0.988500617367233 0.1512163577744053 0.0003776321510078376
-0.9842714293062023 0.1766622670156817 0.000443694044556582
-0.9787485502005129 0.205063421519579 0.0005183001804609312
-0.9716427033931176 0.2364531562161158 0.0006015466322278772
-0.9626390880455709 0.2707868269060103 0.0006932106213621436
-0.951407082335005 0.307934953002277 0.0007927182840848616
-0.9376122003970804 0.3476816836439408 0.0008991802151655563
-0.9209299188007785 0.3897269062941586 0.001011517659363961
-0.9010632421023296 0.4336862455282853 0.001128792105726195
-0.8777726612253751 0.4790757657721571 0.001251341337727597
-0.8509463253511368 0.5252508256225205 0.001386201376797283
-0.8208014020240554 0.57121148885504 0.001579061541848768
-0.7885687467528152 0.6149429738483224 0.002114369711089858
-0.7593821055074003 0.6506294787955932 0.004483208373683542
-0.9007209841202091 0.434382459039061 -0.003686196508592056
-0.9165192543560267 0.3999902730708667 -0.0004876918759678938
-0.9330830440236871 0.359660940605579 0.000201886600749585
-0.9475692195103108 0.3195504002285293 0.000340514913661704
-0.9595232179724006 0.2816293055133728 0.0003583963496728092
-0.9691078389577862 0.2466371390830353 0.0003436502645559137
-0.9766530262328562 0.2148226362946199 0.0003182540379077015
-0.9825135316603203 0.1861909675473436 0.0002893236047519885
-0.9870170553536793 0.1606152700080311 0.0002597714361974007
-0.9904462955925256 0.1378988113799212 0.0002310130909975115
-0.9930358138464268 0.1178126940690701 0.0002038002742263539
-0.9949754645918818 0.1001188942490546 0.0001785343541857192
-0.9964163516181259 0.08458386417653319 0.0001553994481576683
-0.9974772972162007 0.07098607935684774 0.0001344462941944302
-0.9982508908728879 0.05911975555210238 0.0001156500967752994
-0.9988087484327934 0.04879625259626867 9.892763795433145e-05
-0.9992059067149823 0.03984405734996391 8.414144331133498e-05
-0.9994844021099656 0.03210801892427309 7.113116513737355e-05
-0.999676138465986 0.02544827318748292 5.97788372658181e-05
-0.9998051644636067 0.01973906318247276 4.996577027512956e-05
-0.9998894726148818 0.01486744197749924 4.150877771279324e-05
-0.9999424100768122 0.0107319783627046 3.42081646722181e-05
-0.9999737779347516 0.007241730532754265 2.796052571226274e-05
-0.9999906884657186 0.00431537557601159 2.270452914432143e-05
-0.9999982321268456 0.001880268259045557 1.828816637392252e-05
-0.9999999916400641 -0.0001284889474391864 1.450728939915177e-05
-0.9999984356724057 -0.001768764292288099 1.120799906125076e-05
-0.9999952198241276 -0.003091967017606864 8.297968674884246e-06
-0.9999914152161992 -0.004143604830142706 5.7371281360685e-06
-0.9999876801620406 -0.004963820311736495 3.471742648320537e-06
-0.9999843872747881 -0.005587951748092025 1.38821457800264e-06
-0.9999817159203903 -0.006047133578299825 -6.3052407630786e-07
-0.9999797197059617 -0.006368686670947501 -2.621653573529528e-06
-0.9999783749273571 -0.006576447171363423 -4.499307595049713e-06
-0.9999776143241079 -0.006691099538539457 -6.13438630336203e-06
-0.9999773500395992 -0.006730479378311416 -7.424215736281585e-06
-0.9999774875422358 -0.006710017808260044 -8.350436387666679e-06
-0.9999779344990924 -0.006643074192183072 -8.955756708502035e-06
-0.9999786065244874 -0.00654113197302021 -9.265812125156091e-06
-0.9999794300180076 -0.006414004515809819 -9.323700587113032e-06
-0.9999803435943764 -0.006269955403688644 -9.171077218140547e-06
-0.9999812984448235 -0.006115773282554624 -8.818201186389243e-06
-0.9999822574263104 -0.005956908873814145 -8.321584607499573e-06
-0.9999831934383524 -0.005797652925698082 -7.835018329603579e-06
-0.999984087274335 -0.005641377624568622 -7.524086953206609e-06
-0.9999849257104705 -0.005490746372906993 -7.48951629707051e-06
-0.9999857005786523 -0.005347763828057113 -7.762783819403994e-06
-0.9999864074480681 -0.005213909390385838 -8.244670262901253e-06
-0.9999870448134914 -0.005090199304621662 -8.730356021641968e-06
-0.9999876143464583 -0.004977054578290741 -9.022372016697317e-06
-0.9999881202523057 -0.004874348530224678 -8.981420477167159e-06
-0.9999885689222747 -0.004781417247801712 -8.595510052375486e-06
-0.9999889693224493 -0.004696931908539617 -8.004471784511865e-06
-0.9999893327443833 -0.004618911394293655 -7.414455821591296e-06
-0.9999896725215052 -0.004544755351505052 -7.00909909861277e-06
-0.9999900042462412 -0.004471169868637 -6.899840887995762e-06
-0.9999903459650579 -0.004394078577980062 -7.080537388295971e-06
-0.99999071798877 -0.004308582312472782 -7.40000606672059e-06
-0.9999911430925271 -0.004208762000954207 -7.675929208309679e-06
-0.9999916467916837 -0.004087332384142406 -7.799827531854208e-06
-0.9999922563783012 -0.00393536839583829 -7.682601373431555e-06
-0.9999929987727529 -0.003741971691011505 -7.303463835957608e-06
-0.9999938963400615 -0.003493885734788013 -6.715249630973097e-06
-0.9999949591050383 -0.003175173975910572 -5.893636594593528e-06
-0.9999961720992406 -0.002766905200464099 -4.740979342241163e-06
-0.9999974760732815 -0.002246739207518262 -3.162300832652127e-06
-0.9999987386833861 -0.001588279047236516 -1.142276041111093e-06
-0.9999997110304388 -0.0007602220370983811 1.221737895719959e-06
-0.9999999623075673 0.0002745364131409479 3.82386937871758e-06
-0.9999987834282345 0.00155983917555272 6.617957726764043e-06
-0.9999950471185295 0.003147323532301598 9.643259331644276e-06
-0.9999870074074854 0.005097533296980276 1.305784743393318e-05
-0.9999720153895858 0.007481186215171594 1.704416325788015e-05
-0.9999461188605129 0.01038069866231151 2.170435178251852e-05
-0.9999035039847108 0.01389179552747716 2.713152205304775e-05
-0.9998357273637744 0.01812504252775229 3.34711695982628e-05
-0.999730674568349 0.02320725421639654 4.097375751546104e-05
-0.9995711687121952 0.02928269418715022 5.00047742940621e-05
-0.9993331414050248 0.03651395320898736 6.091483012251639e-05
-0.9989832663468208 0.04508245873191637 7.398460490070365e-05
-0.9984759755773877 0.05518802562180088 8.956981067894071e-05
-0.997749820600366 0.06704687748896848 0.000108216987373213
-0.9967231883313309 0.08088800161170066 0.0001305292736522662
-0.9952894833888316 0.09694750942391961 0.00015707352158223
-0.9933120735589288 0.1154603352169976 0.0001884506276232419
-0.9906195267666758 0.1366488288140426 0.0002253271342705505
-0.987001886152728 0.1607084463432714 0.0002683372662259664
-0.9822089381229786 0.1877911093763649 0.0003179788111198414
-0.9759515282409461 0.2179873258408588 0.0003745622947313603
-0.9679068276359939 0.2513089354598042 0.0004381480180739973
-0.9577279639525039 0.2876749702788018 0.0005084667945985259
-0.9450577136510876 0.326903006690923 0.0005848803405670206
-0.9295453453553548 0.3687072101427529 0.0006664209940861654
-0.9108659964311805 0.4127015521126914 0.000751950269319931
-0.8887447283752572 0.4584016810512071 0.0008405918256811474
-0.8629961943341398 0.505209558239666 0.0009331816933442812
-0.8336157379385897 0.5523438444664774 0.001038720892170847
-0.8010336885693283 0.5986180471341759 0.001209719918484576
-0.7669100541491628 0.6417522164394414 0.001749725690542653
-0.7370059172785698 0.6758735035571528 0.004157533614130353
-0.8718002890462615 0.4898475953411843 -0.003686374548757569
-0.8920228108713989 0.451989995239731 -0.0005908369284948218
-0.9136020728838322 0.406609447092701 9.978643284931104e-05
-0.9325471655460331 0.3610480808332006 0.0002595355880706309
-0.9481286940492429 0.3178866007663533 0.0002976133222329429
-0.9605533399577483 0.2780956523795466 0.0002987032109044266
-0.9702808458513422 0.2419814019251706 0.000285125117012523
-0.9778001597094603 0.209539441381337 0.0002649108352145025
-0.9835547656886942 0.18060997876805 0.0002417859833575206
-0.9879213153633113 0.1549562106551266 0.0002177848207308527
-0.9912086318053245 0.1323080139482889 0.0001941125346534875
-0.9936644534696438 0.1123873858511601 0.0001715004840718884
-0.9954845931095023 0.09492313874639934 0.0001503733349883894
-0.9968221660505346 0.07965897388621718 0.0001309569194735425
-0.9977959111644499 0.06635741717753174 0.0001133535697271711
-0.9984972778462879 0.05480124645607565 9.757260518916252e-05
-0.9989962696223642 0.04479337340600986 8.354345990191612e-05
-0.9993461592214012 0.03615589836781089 7.115230139263508e-05
-0.9995872406968371 0.02872881129814362 6.031151169279325e-05
-0.9997497908389039 0.02236857448082263 5.092409391580988e-05
-0.9998563952694801 0.01694659272289337 4.282294864607327e-05
-0.9999237636769347 0.01234769416829906 3.581730662355868e-05
-0.9999641378814818 0.008468887915384291 2.980639330728838e-05
-0.9999863842654764 0.005218301633083929 2.473306679534738e-05
-0.9999968395036375 0.002514073266141986 2.045356152831651e-05
-0.9999999597388679 0.0002832684675407109 1.677012632628785e-05
-0.9999988156763219 -0.001538981104331035 1.353194968874401e-05
-0.9999954693657334 -0.003010171856772043 1.064888121754538e-05
-0.9999912591618458 -0.004181092507282731 8.084000568215103e-06
-0.9999870129691614 -0.005096455582888554 5.788398422954444e-06
-0.999983205700943 -0.005795541623396499 3.65465685980203e-06
-0.9999800735931972 -0.006312876846553542 1.569714526676584e-06
-0.999977697259292 -0.006678696261406226 -5.01391875047802e-07
-0.9999760611112349 -0.006919335109399538 -2.470470599791038e-06
-0.9999750947055523 -0.007057616520014932 -4.204456444669773e-06
-0.9999747008385128 -0.007113202629247337 -5.592975757511996e-06
-0.9999747728318489 -0.007103073717805565 -6.606895997364041e-06
-0.9999752055069128 -0.007041897355487573 -7.283011250614167e-06
-0.9999759021751535 -0.006942262631370487 -7.651422796575272e-06
-0.9999767781551704 -0.006814916738520135 -7.762233445981942e-06
-0.9999777625784571 -0.006668904699263076 -7.661243690821679e-06
-0.9999787989110638 -0.006511656793131528 -7.361660382734762e-06
-0.9999798439333958 -0.006349147895123818 -6.924355185867707e-06
-0.9999808658981985 -0.006186096925967547 -6.504725323917465e-06
-0.9999818421796617 -0.006026215373979502 -6.263872848090777e-06
-0.99998275710675 -0.005872431309303128 -6.300804732068129e-06
-0.9999836007860072 -0.005726963842571209 -6.648060932422232e-06
-0.9999843676012602 -0.005591466823868531 -7.201722356478574e-06
-0.9999850553238842 -0.005467089610158225 -7.751271146748304e-06
-0.9999856653239823 -0.005354351588759666 -8.100361276028765e-06
-0.9999862018854384 -0.005253186929294243 -8.112986595966163e-06
-0.9999866718812749 -0.005162944833507818 -7.775420752254912e-06
-0.9999870851871215 -0.005082263933963455 -7.229750902936522e-06
-0.9999874544064863 -0.00500909022721937 -6.688103837021304e-06
-0.9999877946191148 -0.004940705686934251 -6.333543381281078e-06
-0.9999881236480759 -0.004873656060352587 -6.277370536278001e-06
-0.9999884623016121 -0.004803667473760054 -6.516047776194032e-06
-0.9999888342953188 -0.004725593835945921 -6.89828687462615e-06
-0.9999892666366643 -0.00463320180537728 -7.245434216011364e-06
-0.9999897900778482 -0.004518814500050461 -7.454850086641956e-06
-0.9999904383016862 -0.004373013814836953 -7.441525789113967e-06
-0.9999912458246784 -0.004184282776974683 -7.186748046630966e-06
-0.9999922436208931 -0.003938610493140882 -6.740539310247792e-06
-0.9999934508269126 -0.00361915272045687 -6.071946135349112e-06
-0.9999948611062317 -0.003205890720701287 -5.080833796070846e-06
-0.9999964216546262 -0.002675194277341895 -3.677094258824397e-06
-0.999998001728919 -0.001999133491474488 -1.857951363447963e-06
-0.9999993449614463 -0.001144585781099196 2.601798069173627e-07
-0.999999997383084 -7.230017414343475e-05 2.552705536538763e-06
-0.9999992010263774 0.001264089401165839 4.959042399138477e-06
-0.9999957391841895 0.002919170623734247 7.505712450281495e-06
-0.9999877143219981 0.00495692427195738 1.033574641504038e-05
-0.9999722328313985 0.007452072262860044 1.360795783117951e-05
-0.9999449606240481 0.01049168336736093 1.739796864409497e-05
-0.9998995029627635 0.01417686498057015 2.177476974353456e-05
-0.9998265508272821 0.01862438023760132 2.686233481833941e-05
-0.9997127222847214 0.02396814177661281 3.289144300388234e-05
-0.9995390130019352 0.03036049852716269 4.020322701260327e-05
-0.9992787567105998 0.03797320074114371 4.911608606638601e-05
-0.9988949833441466 0.04699796446629597 5.988256325595329e-05
-0.9983370832982601 0.05764601292194287 7.284041148674324e-05
-0.9975367313076974 0.07014600384933452 8.852075186442405e-05
-0.9964030777621364 0.08474016206800204 0.0001075120025409458
-0.9948173344321117 0.1016781889846757 0.0001303770838144177
-0.9926270968610436 0.1212081750471714 0.0001577306251025283
-0.9896410218012711 0.143563964024281 0.0001902676277948666
-0.9856247573338566 0.1689490616839703 0.0002286628124193286
-0.9802993066254287 0.19751758060282 0.0002734639127945668
-0.9733431749054543 0.2293533479570982 0.0003250320600425955
-0.964399525977585 0.264449252694511 0.0003834625452431989
-0.9530890385299022 0.3026897479164506 0.0004484868131815089
-0.9390282939301645 0.3438394878503872 0.0005194163910778513
-0.9218527351132371 0.3875399083080007 0.0005951746550858491
-0.9012434793349428 0.4333125154540759 0.0006744680180326434
-0.8769604652857852 0.4805619318818418 0.0007562749038993267
-0.8488945250542064 0.5285616116440152 0.000841444754249962
-0.8171777219167204 0.5763850173358032 0.0009394646371741795
-0.7824644580029622 0.6226942694600763 0.001103967260406242
-0.7467296497442133 0.6651256678258179 0.001635907131653824
-0.7159867214485494 0.6981024608593868 0.003996104531304884
-0.8412992241550397 0.5405574277624174 -0.003644547572269747
-0.8655070527568727 0.5008962871317917 -0.0006716886907305598
-0.8918834574896879 0.4522652962721558 6.640677013716816e-06
-0.9153878912674493 0.4025729445365731 0.0001812404068956501
-0.9348844811983938 0.3549520393494737 0.0002378572241985283
-0.9504934062922747 0.3107446210060076 0.0002551680639779283
-0.9627303157744236 0.2704630740056962 0.0002543388837237008
-0.972188183000041 0.2342009339392398 0.0002436740982276313
-0.9794198113900345 0.2018335484812499 0.000227517418217876
-0.984899901137732 0.1731246408222694 0.0002085162966089901
-0.9890193135925198 0.1477862031826018 0.0001883875039552857
-0.9920919409173028 0.1255131565019885 0.000168261244447605
-0.9943657611427029 0.1060033532808649 0.0001488633756144118
-0.99603441138382 0.08896872636975039 0.0001306423807865833
-0.9972477634469518 0.07414098283256404 0.0001138625200516903
-0.9981209790107233 0.06127398735956059 9.864955789998506e-05
-0.9987419892205764 0.05014410972566912 8.501497334227482e-05
-0.9991775305252505 0.04054944116656761 7.290089608020083e-05
-0.9994779429581339 0.03230847666483527 6.22557240450668e-05
-0.9996809498275069 0.02525857759721677 5.30069666624699e-05
-0.9998146183050517 0.01925427220626489 4.500366808219269e-05
-0.9998996629519195 0.01416554198658969 3.806394433153031e-05
-0.9999512268937282 0.009876376054291798 3.208989432190984e-05
-0.9999802581477215 0.006283516876979475 2.702725284010995e-05
-0.9999945706375311 0.003295175034798811 2.273652325027083e-05
-0.9999996555494133 0.0008297826193289891 1.902258731175431e-05
-0.9999992977367934 -0.00118502249363839 1.573561393000232e-05
-0.9999960427871831 -0.002813227059635416 1.278610989509551e-05
-0.9999915488176722 -0.004111227364400114 1.013858081762551e-05
-0.9999868487766643 -0.005128568386820054 7.747123689164206e-06
-0.9999825435649775 -0.005908683014990612 5.508680045598899e-06
-0.9999789419562694 -0.006489655848948698 3.313901347433055e-06
-0.9999761618211307 -0.00690476561515004 1.130977240709387e-06
-0.9999742023152444 -0.007182945293459946 -9.496576838657542e-07
-0.9999729940306474 -0.007349231360138242 -2.792395362146764e-06
-0.9999724330448948 -0.007425168815424721 -4.281974050110483e-06
-0.9999724021412222 -0.007429328835816414 -5.381697775677303e-06
-0.9999727842591202 -0.007377716689923714 -6.124184341273214e-06
-0.9999734709590706 -0.007284046624803896 -6.544956682075836e-06
-0.9999743667611447 -0.007160012272335811 -6.701295577497076e-06
-0.9999753914114653 -0.007015449192041228 -6.642290174165451e-06
-0.9999764806324243 -0.006858435771437614 -6.38431776470868e-06
-0.9999775850197025 -0.006695477745227896 -5.993863604081848e-06
-0.9999786680040158 -0.006531730645777732 -5.628973323550586e-06
-0.9999797033271252 -0.00637125608792029 -5.445746294652934e-06
-0.999980672646654 -0.006217258435381315 -5.540077573920608e-06
-0.9999815641090304 -0.006072183026754944 -5.94532206319247e-06
-0.9999823706800385 -0.005937868823983507 -6.554297469454739e-06
-0.9999830891819671 -0.005815608218356673 -7.151229624131282e-06
-0.9999837204504514 -0.005706029897923817 -7.541706601337365e-06
-0.999984268602898 -0.005609143344129225 -7.594188131881984e-06
-0.9999847407553127 -0.005524328315746883 -7.293100910482001e-06
-0.9999851474456503 -0.005450214869802377 -6.780385610883278e-06
-0.9999855023425027 -0.005384706627285512 -6.272957882953569e-06
-0.9999858220539306 -0.005325002879759886 -5.954365674944503e-06
-0.9999861264703571 -0.005267526133556239 -5.936573869184175e-06
-0.9999864390521299 -0.005207847270389207 -6.216802340171536e-06
-0.9999867868821699 -0.005140624179590452 -6.642121911010737e-06
-0.99998720127903 -0.005059370376633679 -7.037377671366608e-06
-0.9999877184966993 -0.004956087405184947 -7.30737738536175e-06
-0.9999883791331085 -0.004820948497252559 -7.370539359084864e-06
-0.9999892261929376 -0.004641922672954027 -7.207498637322742e-06
-0.9999903006702268 -0.00440437491267132 -6.86278721428081e-06
-0.9999916329966797 -0.004090708613078154 -6.298892005512004e-06
-0.9999932287584989 -0.003680001066270268 -5.413320058324062e-06
-0.9999950464501697 -0.003147547959675859 -4.118803172490071e-06
-0.9999969639856827 -0.00246414560361209 -2.420916124858406e-06
-0.999998727724939 -0.001595164035340441 -4.507398606528361e-07