# OOMMF: rectangular mesh v1.0
# Segment count: 1
# Begin: Segment
# Begin: Header
# Title: 
# Desc: time = 5.418926241584368e-11
# Desc: stepsize = 5.409250941912222e-13
# Desc: step = 100
# meshunit: m
# valueunit: (none)
# valuemultiplier: 800000.0000000002
# xmin: 0
# ymin: 0
# zmin: 0
# xmax: 4e-07
# ymax: 1e-07
# zmax: 4e-09
# ValueRangeMaxMag: 1
# ValueRangeMinMag: 0.9999999999999996
# meshtype: rectangular
# xbase: 2e-09
# ybase: 2e-09
# zbase: 1e-09
# xstepsize: 4e-09
# ystepsize: 4e-09
# zstepsize: 2e-09
# xnodes: 100
# ynodes: 25
# znodes: 2
# End: Header
# Begin: Data Text
-0.9444007619732204 0.3287868480610589 -0.002531664763445555
-0.9511941385174281 0.3085927917286264 0.0004469264141765139
-0.9594405713249036 0.2819092025143349 0.0009958079501276151
-0.9674218757059797 0.2531676106980019 0.001036966242615829
-0.9744247729967448 0.2247118553895722 0.0009715027627430346
-0.9802524669535361 0.1977481379829121 0.0008803157371845184
-0.984949085852483 0.1728429432835836 0.0007843694444803875
-0.9886546386388664 0.1502049536748282 0.0006909337123243098
-0.9915340338858114 0.1298456622533301 0.0006030258071583013
-0.9937450252324749 0.1116716277301956 0.0005219059267293679
-0.9954257228087766 0.09553758252000334 0.000447992028501753
-0.9966914938346173 0.0812768157429531 0.0003812353663447045
-0.9976360547247998 0.06871825841855506 0.0003213612556906139
-0.9983341795273601 0.05769570327898731 0.000267974952711971
-0.9988447862677521 0.04805251567221153 0.0002206429237879075
-0.9992138659764123 0.03964363778692076 0.0001789510864404529
-0.9994770397056287 0.03233615303482749 0.0001425067736277722
-0.9996617019766251 0.02600902323583303 0.0001109572669608881
-0.9997887725800727 0.020552449330793 8.396032557382192e-05
-0.9998741085126663 0.01586705339751104 6.117582264300134e-05
-0.9999296305162342 0.01186306180654024 4.21929019594719e-05
-0.9999642169494152 0.008459557633267634 2.655920988342662e-05
-0.9999844109154123 0.005583702767143021 1.376820296039355e-05
-0.9999949750695301 0.003170145904253837 3.261164134886313e-06
-0.9999993267456603 0.001160378690110493 -5.433344831633349e-06
-0.9999998759525014 -0.0004979300577974755 -1.267435494756362e-05
-0.9999982857558468 -0.001851522961734253 -1.865715267589853e-05
-0.999995671481637 -0.002942187739813797 -2.34369995747363e-05
-0.9999927521150181 -0.003807228227899189 -2.703057465113622e-05
-0.9999899648039962 -0.00447989096234223 -2.946637681361925e-05
-0.9999875510215269 -0.004989673812743366 -3.093882891821106e-05
-0.9999856215489658 -0.005362432824252225 -3.177315773001515e-05
-0.99998420322864 -0.005620698806739434 -3.221964206980901e-05
-0.9999832714798446 -0.005784091135052683 -3.240691791645682e-05
-0.9999827726756138 -0.005869694104998303 -3.229713673711738e-05
-0.9999826384662469 -0.005892516969270775 -3.177814044566751e-05
-0.9999827964619969 -0.005865647639106267 -3.094862824428356e-05
-0.9999831786136708 -0.005800136785489004 -3.004943190322593e-05
-0.9999837244884699 -0.005705252728793085 -2.914563353071084e-05
-0.9999843812654186 -0.005588956268524589 -2.816108098201063e-05
-0.9999851043396554 -0.005458054995968968 -2.710109545618874e-05
-0.9999858580141529 -0.005318185160738036 -2.604409038726029e-05
-0.9999866147256415 -0.005173948511020016 -2.502710648447539e-05
-0.9999873536735142 -0.005029106751950279 -2.404826346858608e-05
-0.9999880598131188 -0.004886685681859823 -2.311364548494958e-05
-0.9999887230337597 -0.004749032609460422 -2.223924454510821e-05
-0.9999893372700713 -0.004617887691327807 -2.143439362848562e-05
-0.9999898996998173 -0.004494448770195979 -2.070267612132039e-05
-0.9999904101151729 -0.004379415013250561 -2.004568747720503e-05
-0.9999908704554927 -0.004273011443404834 -1.946459426839982e-05
-0.9999912844569877 -0.004175003073724291 -1.895779131154586e-05
-0.999991657435471 -0.004084692936625659 -1.852221533131505e-05
-0.9999919961785 -0.004000906078009589 -1.815195272905244e-05
-0.9999923089476808 -0.003921954516782038 -1.783967306856884e-05
-0.9999926055467595 -0.003845587459749241 -1.757532754421759e-05
-0.9999928974415945 -0.003768920991085608 -1.734725405176666e-05
-0.9999931978773109 -0.003688347246361584 -1.713765063756844e-05
-0.9999935219481438 -0.003599413189848682 -1.692440495245855e-05
-0.9999938864535018 -0.003496680879613363 -1.668672037368964e-05
-0.999994309369554 -0.003373567755369556 -1.640451227226157e-05
-0.9999948087735071 -0.003222137339251177 -1.603132497389072e-05
-0.9999954008998636 -0.00303281040249034 -1.549783404479862e-05
-0.9999960964498846 -0.002794077114174967 -1.476727581359977e-05
-0.9999968942774451 -0.002492236766857279 -1.383335217954872e-05
-0.999997771776273 -0.002110991162954589 -1.26015388852618e-05
-0.9999986701537542 -0.001630819510595873 -1.088330178615251e-05
-0.9999994711428883 -0.001028416620061473 -8.555612111316197e-06
-0.9999999618328499 -0.000276230217629179 -5.582578956403502e-06
-0.9999997833625081 0.0006582335945180702 -1.863299943955746e-06
-0.9999983558785995 0.001813348338468678 2.810754148046823e-06
-0.9999947694178116 0.003234356293448793 8.739804034063005e-06
-0.9999876270623618 0.00497448054623323 1.629360530196463e-05
-0.9999748222015364 0.007096076122176926 2.58200220041749e-05
-0.9999532265854112 0.009671774660030531 3.763442695351485e-05
-0.9999182573817986 0.0127857671567576 5.208416496903744e-05
-0.9998632830560561 0.01653512485260369 6.958788113100407e-05
-0.9997788174871732 0.02103111670870266 9.074102710267441e-05
-0.9996514399005857 0.02640047670718289 0.0001163370901186462
-0.9994623743456278 0.03278628621524201 0.0001473214581052209
-0.9991856568054539 0.04034834681045727 0.0001847807247519102
-0.9987858254794881 0.04926278484999146 0.0002298914532246516
-0.9982150943085506 0.0597205567570535 0.000283892934924056
-0.9974100138808751 0.07192456509961265 0.0003480594547647949
-0.996287705165519 0.08608501041717721 0.0004236950525773188
-0.9947418562585196 0.1024127781438174 0.0005121330095154368
-0.9926388247585949 0.1211106343531407 0.0006146775209184118
-0.989814332263517 0.142362393094786 0.000732583137210939
-0.9860713526103528 0.1663205818341955 0.0008669599318707278
-0.9811798310527242 0.1930935043566289 0.001018680825137445
-0.9748787172838158 0.2227331914669776 0.001188278585269404
-0.9668804994397456 0.2552257958374693 0.001375842388382698
-0.9568779999463513 0.2904857893584059 0.001580948922000459
-0.944552975423632 0.3283541185269527 0.00180262718022399
-0.9295865532135885 0.3685982650897318 0.002039376698746163
-0.9116738180985583 0.4109082727571755 0.002289273533456929
-0.8905509998916963 0.4548762594948901 0.002550517562510143
-0.8660596278131026 0.4999327378502512 0.002824658878805922
-0.8383189177118707 0.545171114948534 0.003138093715861115
-0.8082613311686084 0.588812395832009 0.00368551924680163
-0.7799104050585777 0.6258663342659317 0.005575994430557877
-0.9256892140656243 0.3782649981298215 -0.003882029419298629
-0.9369184663587881 0.3495474614176508 -0.0005996768896973537
-0.9487820683827307 0.3159312827139951 0.0001063864498928386
-0.9594276769146128 0.281954726740923 0.0002546344048189284
-0.9684178827104767 0.2493325591689205 0.0002817531429657709
-0.9757483553216167 0.2188951149458466 0.0002752090187344355
-0.9815869089167857 0.1910159008722077 0.0002566265154070566
-0.9861594613488959 0.1657994644344078 0.0002332066005756763
-0.9896946778314568 0.1431935800733235 0.0002080814094472853
-0.9923992351682578 0.1230598415424908 0.0001828578506545693
-0.9944492242834185 0.1052174663141868 0.0001584440911767621
-0.9959895329161447 0.08946972674499555 0.0001353427338872646
-0.9971367527646983 0.0756193316985654 0.0001138390746498286
-0.9979833062062442 0.06347685943140287 9.407645373425656e-05
-0.9986016631106507 0.05286504173688125 7.612358301203314e-05
-0.999048172104092 0.04362047927714108 6.002586945424423e-05
-0.9993663328878626 0.03559396847588092 4.580833721244272e-05
-0.9995895031957134 0.02865002581262957 3.34945090414837e-05
-0.9997430917466815 0.02266605329653152 2.308126249299971e-05
-0.9998463141076122 0.01753134205380437 1.453322102965085e-05
-0.9999135863474345 0.01314609365179183 7.714232627383108e-06
-0.9999556258131983 0.009420530700985988 2.417958190237834e-06
-0.9999803183234401 0.006273990999400201 -1.640138874402936e-06
-0.9999933961777012 0.003634223128666884 -4.820524263101344e-06
-0.9999989680036945 0.001436640713012507 -7.41670539145559e-06
-0.9999999291018391 -0.0003764353668415463 -9.629683875555805e-06
-0.9999982767288293 -0.001856450062302694 -1.151248529580251e-05
-0.9999953507140855 -0.003049324740153834 -1.299390297889271e-05
-0.9999920158941077 -0.003995992074496871 -1.397780036530215e-05
-0.9999887997685567 -0.004732877591601366 -1.439251030773676e-05
-0.9999859958241027 -0.005292253767535998 -1.434355367951692e-05
-0.9999837411680241 -0.005702385589079293 -1.407818923745817e-05
-0.9999820723509917 -0.005987886671836173 -1.37775430592158e-05
-0.9999809642041382 -0.006170173972184586 -1.350981004755095e-05
-0.9999803565538841 -0.006267881025975452 -1.31837326538864e-05
-0.9999801713914162 -0.006297353747477911 -1.264013974160612e-05
-0.9999803255687196 -0.006272824956419177 -1.193913905294416e-05
-0.9999807405786104 -0.006206314882079417 -1.12888321875611e-05
-0.9999813464959948 -0.006107908400363737 -1.072517095640328e-05
-0.9999820821432345 -0.005986258392813853 -1.014572083005621e-05
-0.9999828958450405 -0.005848754263834683 -9.535621289590632e-06
-0.9999837461828963 -0.005701516448334326 -8.955989800582974e-06
-0.9999846011264607 -0.005549544024863898 -8.430238754181041e-06
-0.999985436462452 -0.005396925040700664 -7.943803381227556e-06
-0.9999862346472617 -0.005246947667583268 -7.494309949727124e-06
-0.99998698383087 -0.005102168026929738 -7.089718303063675e-06
-0.9999876768452122 -0.004964485104546827 -6.735111719238752e-06
-0.9999883102609192 -0.004835214594472824 -6.429355828700451e-06
-0.9999888836786985 -0.004715133181641808 -6.173257959598886e-06
-0.9999893991713286 -0.004604509677355558 -5.966233197773668e-06
-0.9999898609006104 -0.004503116946333578 -5.809045233072707e-06
-0.9999902748518729 -0.004410234595694043 -5.699684621576065e-06
-0.9999906487367455 -0.004324627992989777 -5.637792077508767e-06
-0.9999909919867903 -0.004244515718972673 -5.620128067328224e-06
-0.9999913158689621 -0.00416751182197359 -5.645821228789561e-06
-0.9999916336256028 -0.00409055572993248 -5.711200755607282e-06
-0.999991960661256 -0.004009810353966406 -5.812223375173124e-06
-0.999992314645251 -0.003920537610801625 -5.939285506690973e-06
-0.9999927154279431 -0.003816943010548134 -6.091183891111825e-06
-0.9999931844859323 -0.003692010615823043 -6.268716489028632e-06
-0.9999937438009544 -0.003537275405598895 -6.454116767125664e-06
-0.9999944137446717 -0.003342519383200085 -6.604749653068961e-06
-0.9999952090496249 -0.003095453540088599 -6.721434069414185e-06
-0.9999961317451207 -0.002781447092400666 -6.845934370162416e-06
-0.9999971603995329 -0.002383095603313589 -6.943782977625906e-06
-0.9999982336080827 -0.001879556693320877 -6.881171019767256e-06
-0.9999992238053279 -0.001245931424700512 -6.605003176462099e-06
-0.9999998974763146 -0.0004527794910466819 -6.171899176979671e-06
-0.9999998570773534 0.0005346157000417301 -5.596913643567263e-06
-0.9999984560366855 0.001757242509265012 -4.796726479456067e-06
-0.9999946750051538 0.00326342584549862 -3.617610700173925e-06
-0.9999869438222084 0.005110007992919255 -1.852272892227473e-06
-0.9999728884373674 0.007363585390592385 6.50747787593161e-07
-0.9999489763580341 0.01010171593015905 3.973088773227488e-06
-0.9999100244470848 0.01341428131623716 8.185296090585551e-06
-0.9998485234553852 0.0174048833596336 1.339115865244023e-05
-0.9997537216832261 0.02219224160371435 1.98277678996061e-05
-0.9996103971112315 0.02791152466400031 2.789366017494294e-05
-0.9993972425656322 0.0347152718752736 3.808984354811597e-05
-0.9990847834427139 0.04277374066719287 5.101529951081638e-05
-0.9986327556511264 0.05227441831341814 6.730996101370315e-05
-0.9979869025287725 0.06342030195946317 8.763787078745056e-05
-0.9970752007945739 0.07642663977075785 0.0001126668118418998
-0.9958036254677342 0.09151567643408359 0.0001430808444142573
-0.9940516901026929 0.1089091600766779 0.0001795978076655307
-0.9916681866937204 0.1288183131338005 0.0002229370993999375
-0.9884677300448509 0.1514314091628149 0.00027382283264937
-0.9842288637639923 0.1768994994325817 0.0003329179212405187
-0.9786945384675515 0.2053213086167809 0.0004007513920039005
-0.9715755970338974 0.2367290246475529 0.0004776375651390817
-0.9625575249964231 0.2710769142668343 0.0005635816989386386
-0.9513101514722383 0.3082345899561941 0.0006582251920375904
-0.9374995760035251 0.3479855832324233 0.0007608256045653535
-0.9208019261234131 0.3900295570501142 0.0008703302269366646
-0.9009208377792334 0.4339823413096059 0.0009856401963633033
-0.8776173183748737 0.4793606343084021 0.001106690535595464
-0.8507798410571693 0.5255208130777168 0.001239787430542348
-0.8206256391402268 0.571464361870431 0.001429509606398747
-0.7883853305270088 0.6151786191651787 0.001958859832424425
-0.7591923929421699 0.6508519528127645 0.004318103582852123
-0.9003075200564545 0.4352351100177139 -0.004094916075388992
-0.9161685288915279 0.4007923515438112 -0.0008471202483713862
-0.9328000835173957 0.3603942187481157 -0.0001062208753889846
-0.9473464868311657 0.3202102870731109 7.707920332317958e-05
-0.9593504475833782 0.2822174714895173 0.0001323164196629626
-0.9689751729619966 0.2471580306131025 0.0001486160178515056
-0.9765519686268241 0.2152817464029608 0.0001491199687090566
-0.9824371054553324 0.1865939808356693 0.0001419170373741098
-0.9869596732635729 0.1609676559867938 0.0001306812074112754
-0.990403543850911 0.1382056675593177 0.0001173969313287034
-0.9930042322980562 0.118078719398096 0.0001032639980160578
-0.994952354596509 0.1003484138258758 8.902523792069918e-05
-0.9963996147058811 0.08478090683670922 7.516592500462149e-05
-0.9974653097948357 0.07115442299580538 6.200020899396866e-05
-0.9982424032860964 0.05926298851298285 4.974040585217191e-05
-0.9988028095236949 0.04891774934585053 3.855528026445847e-05
-0.9992018010311973 0.03994696483483654 2.857438560885115e-05
-0.9994815990420236 0.03219522914837392 1.991187450801606e-05
-0.9996742514376199 0.02552235986055774 1.264049249054597e-05
-0.9998039182845407 0.01980214475134193 6.791591091518694e-06
-0.9998886737238962 0.01492113110489223 2.284260511872499e-06
-0.9999419207502889 0.01077752871212624 -1.040321707000001e-06
-0.9999734995724069 0.007280119584602891 -3.42735433629619e-06
-0.999990550055472 0.004347386881110589 -5.201929492407809e-06
-0.9999981823707891 0.001906622978044553 -6.628515604087324e-06
-0.9999999942486824 -0.0001069604657270543 -7.879950464876421e-06
-0.9999984669128359 -0.001751025780358735 -8.982993801368086e-06
-0.9999952662001133 -0.003076927124988549 -9.840296089882246e-06
-0.9999914700656267 -0.004130337662340536 -1.033350841380877e-05
-0.9999877396604665 -0.004951809890732697 -1.037095817822983e-05
-0.9999844472548702 -0.005577198895601488 -1.004240239561616e-05
-0.999981771869781 -0.006037866872287035 -9.581539852771807e-06
-0.9999797679795946 -0.006361096415860974 -9.157704446989576e-06
-0.9999784133560587 -0.006570596927058641 -8.827307844902992e-06
-0.9999776419341927 -0.006686969396015591 -8.48691661105832e-06
-0.9999773650783907 -0.006728244006199275 -7.966898266759365e-06
-0.9999774870617675 -0.006710090614092773 -7.320021132193457e-06
-0.9999779167782963 -0.006645743764016234 -6.749942869886896e-06
-0.9999785726435872 -0.0065463130218729 -6.285931285992832e-06
-0.9999793831435018 -0.006421312487927371 -5.820105790001305e-06
-0.9999802877779695 -0.006278855553084785 -5.332168471861423e-06
-0.9999812379426822 -0.006125662314588463 -4.881420628890617e-06
-0.9999821959223301 -0.005967228688404334 -4.487121573058299e-06
-0.9999831331417912 -0.005808047420595635 -4.133599561292315e-06
-0.9999840287974263 -0.005651737389051942 -3.814808919323956e-06
-0.9999848687418954 -0.005501115771172786 -3.539194650047294e-06
-0.9999856442670063 -0.005358287875009478 -3.30879067763694e-06
-0.9999863510445193 -0.005224721514879001 -3.124006000837536e-06
-0.99998698826068 -0.005101303797653623 -2.982967744343806e-06
-0.9999875580069693 -0.004988368763338978 -2.887699499608985e-06
-0.9999880647968764 -0.004885719573474475 -2.836670391788123e-06
-0.9999885153071043 -0.004792624111677221 -2.831499875310566e-06
-0.9999889182338633 -0.004707802165673657 -2.869964909074801e-06
-0.9999892843487325 -0.004629382138708464 -2.953473627333715e-06
-0.9999896266162798 -0.004554849102571381 -3.079859276451133e-06
-0.9999899604415593 -0.004480960334136082 -3.251491949253168e-06
-0.9999903038941447 -0.004403646863340552 -3.463984441763384e-06
-0.9999906779499457 -0.004317869776803798 -3.714546672877768e-06
-0.999991106452803 -0.004217463607307935 -4.002481271540976e-06
-0.9999916156514279 -0.004094949085842541 -4.339424525135398e-06
-0.9999922330212648 -0.003941303711399917 -4.711554776056376e-06
-0.9999929851125157 -0.003745624101912319 -5.083967717777517e-06
-0.9999938931872618 -0.003494790176591909 -5.459354857503015e-06
-0.999994965478392 -0.003173166089620794 -5.902263013646219e-06
-0.9999961851944065 -0.002762165043924489 -6.395649178361252e-06
-0.9999974922405563 -0.002239523645189834 -6.814739473266828e-06
-0.9999987539341898 -0.0015786321781113 -7.107286632911337e-06
-0.9999997202129451 -0.0007480105677703713 -7.363546165316166e-06
-0.9999999580827551 0.0002894411612623253 -7.635561328204298e-06
-0.9999987556838071 0.00157751981910767 -7.877644463785031e-06
-0.9999949823185286 0.003167850115374802 -7.963153697484059e-06
-0.9999868867686659 0.005121155255796159 -7.717314931167291e-06
-0.9999718102646846 0.007508570214000093 -7.022142219612899e-06
-0.9999457839305829 0.01041293258971416 -5.859526353501148e-06
-0.9999029699219676 0.0139302090196256 -4.230578139434078e-06
-0.9998348938105595 0.01817099651470979 -2.118788934292885e-06
-0.9997294031107701 0.02326199809535759 6.279984904627664e-07
-0.9995692706794803 0.02934745465324301 4.320592001882771e-06
-0.9993303573159912 0.03659011968854647 9.373965781538027e-06
-0.9989792410482871 0.04517162482367855 1.629038569106842e-05
-0.9984702312549641 0.05529192202928195 2.561182157214094e-05
-0.9977417204522067 0.06716738667985946 3.789021443910997e-05
-0.9967118895494299 0.08102719511860611 5.36844124207273e-05
-0.9952738980049414 0.09710747931024021 7.356670811623879e-05
-0.9932908495872189 0.115642892091511 9.815809384706539e-05
-0.9905910500311002 0.1368552344272404 0.0001280942890764239
-0.9869643126250173 0.1609391770068659 0.0001640395669318677
-0.9821602687498532 0.1880456428623928 0.0002066148228216891
-0.9758897420801077 0.218263935640147 0.0002563234165777593
-0.9678300547564181 0.2516046240734582 0.0003134566027789881
-0.95763468620221 0.2879855289888082 0.0003779886646441912
-0.9449469626507049 0.3272232200185775 0.0004495084875196714
-0.9294168631681945 0.3690311863733228 0.0005272025141198549
-0.9107203092234811 0.4130231789194335 0.0006099534179663377
-0.8885831095460963 0.4587151316811196 0.0006967037842197166
-0.8628205002108955 0.5055098057690049 0.0007878370407830293
-0.8334281349588756 0.5526271338164941 0.0008915316801679164
-0.800836295635306 0.5988823808028468 0.001059035898536141
-0.7667045843721815 0.6419980879556773 0.001592282617662177
-0.736793831112497 0.6761057131664273 0.003989368156180402
-0.8713343412178105 0.4906727851837713 -0.004084567850351793
-0.8916205998796736 0.4527823031791784 -0.0009443505541234983
-0.9132720475371883 0.4073501251233818 -0.0002067587880241136
-0.9322838235180949 0.3617276218032258 -5.573478336481389e-06
-0.9479222780234907 0.31850172721331 6.774137297851593e-05
-0.9603935855156897 0.2786470010032346 9.865201716334113e-05
-0.9701584382355661 0.2424718386377249 0.0001103991298067103
-0.9777071869015129 0.2099729606079275 0.0001117795660269442
-0.9834847403486655 0.1809910329996241 0.000107121643130939
-0.9878690251897019 0.1552893405457665 9.891212553413704e-05
-0.9911699404046351 0.1325976672735538 8.872363523027162e-05
-0.9936361064886673 0.1126378349594748 7.757373187102965e-05
-0.9954640446141898 0.0951384859257844 6.615215183897585e-05
-0.9968074379371862 0.0798431503403912 5.492561967713904e-05
-0.9977854767792737 0.06651421181011828 4.422256860038117e-05
-0.9984899727216324 0.05493426251429385 3.429816854954043e-05
-0.9989912165610834 0.04490599727386656 2.535045650486687e-05
-0.9993427069145309 0.03625125968775286 1.75439063640119e-05
-0.999584914070292 0.0288097109023262 1.099139905792829e-05
-0.9997482511291038 0.02243734233819598 5.752977187101819e-06
-0.999855404053048 0.01700502816168512 1.770819775841061e-06
-0.9999231516648588 0.01239720788740075 -1.101068891930525e-06
-0.9999637842775929 0.008510588912900919 -3.09686607449674e-06
-0.9999862024434726 0.005253085008138932 -4.536378280551845e-06
-0.9999967671785029 0.002542754466956743 -5.680107719306284e-06
-0.9999999529277098 0.0003067567468404144 -6.698947444004846e-06
-0.999998845405653 -0.001519581977231296 -7.614118943387611e-06
-0.9999955187992124 -0.002993712113183701 -8.32326638946811e-06
-0.9999913196550229 -0.004166597999663514 -8.701439570650329e-06
-0.9999870795308468 -0.005083374519100945 -8.652545736110571e-06
-0.9999832733383651 -0.005783854704643415 -8.26095657776833e-06
-0.9999801370595658 -0.00630281097213635 -7.75764460928321e-06
-0.9999777522627793 -0.006670451711738273 -7.310293875326059e-06
-0.9999761049702617 -0.006912990660542612 -6.973571305680322e-06
-0.9999751261009063 -0.007053164918153242 -6.641766708671851e-06
-0.999974717748679 -0.007110824546171612 -6.141915578512893e-06
-0.999974772064437 -0.007103182678233557 -5.524175879113967e-06
-0.9999751852097594 -0.007044781033400921 -4.989828952956195e-06
-0.9999758635541818 -0.006947826148886126 -4.568687369063622e-06
-0.9999767247372179 -0.006822753593701244 -4.150350654369289e-06
-0.9999776989357231 -0.006678444236635974 -3.714090270464225e-06
-0.9999787298320256 -0.006522259771770543 -3.316281018405673e-06
-0.9999797735744291 -0.006360222729329921 -2.977609826420426e-06
-0.9999807967883023 -0.006197261286399891 -2.679539222166462e-06
-0.9999817750645817 -0.0060373448503023 -2.417861646610569e-06
-0.9999826916114051 -0.005883576529544741 -2.197805633647151e-06
-0.9999835359154833 -0.005738283181348794 -2.024181541077958e-06
-0.9999843024687957 -0.005603107388626299 -1.893990546904177e-06
-0.999984989836501 -0.005479059994249045 -1.808862723437018e-06
-0.9999855998944497 -0.005366563203209028 -1.767166250904251e-06
-0.9999861373456296 -0.005265464217784265 -1.771627004714785e-06
-0.9999866093661443 -0.005175044452925624 -1.820033591213148e-06
-0.9999870255254439 -0.005093994219353032 -1.915148573450349e-06
-0.99998739780476 -0.005020381205046169 -2.054400888384232e-06
-0.9999877408400442 -0.004951582030092219 -2.241353776311635e-06
-0.9999880721833094 -0.004884207713099352 -2.474589857379419e-06
-0.9999884127039685 -0.004813984856670675 -2.75625103842122e-06
-0.9999887868898529 -0.004735618763995831 -3.079320906062494e-06
-0.9999892230173989 -0.004642611027575726 -3.450354271942993e-06
-0.9999897527224495 -0.004527077980974977 -3.879239114166278e-06
-0.9999904099644091 -0.004379493143418582 -4.361167510912477e-06
-0.999991228832165 -0.004188345158429336 -4.854876664204068e-06
-0.9999922391004136 -0.003939760157382999 -5.370561422812362e-06
-0.999993457870019 -0.003617206299197002 -5.979187227579136e-06
-0.9999948766800939 -0.003201026231179001 -6.68064135297143e-06
-0.9999964417007586 -0.002667682880312613 -7.339670228224239e-06
-0.9999980218674633 -0.001989019518982116 -7.906514604322402e-06
-0.999999359554844 -0.001131732272855446 -8.483148725167905e-06
-0.9999999983575844 -5.657813910326837e-05 -9.151225003701081e-06
-0.9999991772336527 0.001282744914806394 -9.874235097280718e-06
-0.9999956757412175 0.002940814138195994 -1.053896896848599e-05
-0.9999875906719558 0.0049818050744022 -1.096801358467651e-05
-0.9999720176382262 0.00748089688754891 -1.105859184082665e-05
-0.9999446042003075 0.01052560752308228 -1.081479696225696e-05
-0.999898928924715 0.01421730739445052 -1.027907313959715e-05
-0.9998256481738643 0.0186727920795854 -9.469110590325716e-06
-0.9997113372025236 0.0240258652356584 -8.271635949754233e-06
-0.9995369351557408 0.03042885503203487 -6.395873964447942e-06
-0.9992756961468556 0.03805368678983787 -3.452159799977918e-06
-0.9988905428983176 0.04709228500725743 1.048406231311025e-06
-0.9983307271163715 0.05775603204117883 7.625955934182696e-06
-0.9975277430948186 0.07027376091689444 1.681524969918344e-05
-0.996390506945672 0.08488790737566657 2.915349676793124e-05
-0.9947999518283935 0.1018481899634234 4.520398413840444e-05
-0.9926033713908126 0.1214024003133019 6.558780994601112e-05
-0.9896091211869701 0.1437837925113548 9.096484908857215e-05
-0.9855825832385794 0.169195025704604 0.0001220392827973225
-0.9802445802806199 0.1977891235448118 0.0001594924637447247
-0.9732735891731334 0.2296485990536871 0.0002038890019137267
-0.9643129472611249 0.2647649418370561 0.0002555750039606633
-0.9529837430225734 0.3030212642657369 0.0003145432873545866
-0.9389032054634905 0.3441810949233925 0.0003803520957308587
-0.9217076185232607 0.3878851138832012 0.0004520884812043291
-0.9010790321426455 0.4336545843658789 0.0005284802072456361
-0.8767782714575327 0.4808944714435915 0.0006083049640559185
-0.8486968527074468 0.5288791671589362 0.0006919174401244206
-0.8169671866593944 0.5766836178691255 0.0007879106611929747
-0.7822435995248671 0.622971950591437 0.0009485666445088598
-0.7465005431775619 0.6653831744182203 0.001473172337872792
-0.7157511330548656 0.6983449778462204 0.003821969078567601
-0.8407929452818691 0.541341827377125 -0.004031016774251234
-0.8650618665126087 0.5016641609037238 -0.001018219270853024
-0.8915108026923941 0.4529993377742896 -0.0002977563057075366
-0.9150852749341376 0.4032603777691982 -8.555791681951874e-05
-0.9346438858919961 0.3555851607582554 3.63793291928281e-06
-0.9503051222291855 0.3113200479416794 4.913819697373585e-05
-0.962584819026721 0.2709805544333004 7.278952667384958e-05
-0.9720769623422729 0.2346622515919892 8.343378671662237e-05
-0.9793356374496683 0.2022416916812404 8.583100415082389e-05
-0.9848368176406435 0.1734832433987866 8.294146871378854e-05
-0.9889725073382308 0.1480992026956374 7.674665296233879e-05
-0.9920575755988825 0.1257845856686386 6.859326266861006e-05
-0.9943408076665697 0.1062372565442829 5.942169303889341e-05
-0.9960165007402682 0.08916909646238549 4.989181146164452e-05
-0.9972350589014016 0.07431174644546523 4.047397744989104e-05
-0.9981120746587195 0.06141893377638974 3.153153984430507e-05
-0.9987358231743125 0.05026683761189281 2.334153430420782e-05
-0.9991733126814779 0.04065330201805214 1.612918107945846e-05
-0.9994750958244334 0.03239649249125738 1.005002676570742e-05
-0.9996790606899557 0.02533329017362713 5.198678683162253e-06
-0.9998133963257068 0.01931767390971215 1.54037847592023e-06
-0.9998989019129119 0.01421921067579269 -1.053820861224187e-06
-0.9999507800657842 0.009921564289111503 -2.808305967098495e-06
-0.9999800207605994 0.006321239067770856 -4.034654003056705e-06
-0.9999944676891788 0.003326344253966239 -4.99395445823405e-06
-0.9999996341399614 0.0008553862581854955 -5.855945659864967e-06
-0.9999993227420187 -0.001163817583836548 -6.643409113302005e-06
-0.9999960933432066 -0.002795218370184728 -7.251698728878801e-06
-0.999991613795629 -0.004095397581013491 -7.554237248726217e-06
-0.9999869216962212 -0.005114330944435312 -7.450236451467449e-06
-0.9999826184375313 -0.005895996401194556 -7.018196993179358e-06
-0.9999790127151087 -0.006478741179693829 -6.484014405223981e-06
-0.9999762234547835 -0.006895831271384984 -6.015439622389274e-06
-0.9999742515652863 -0.007176083494368676 -5.668048502184705e-06
-0.9999730291710314 -0.007344447019443479 -5.337579097811858e-06
-0.9999724518068529 -0.007422641299610047 -4.85058667858349e-06
-0.9999724011457416 -0.007429463557218914 -4.251050853844393e-06
-0.9999727615735139 -0.007380792441673121 -3.738016249797129e-06
-0.999973427891738 -0.007289958798100881 -3.341921586633927e-06
-0.999974307179179 -0.007168331241524613 -2.955007792458811e-06
-0.999975320359394 -0.007025572262265437 -2.552361202678343e-06
-0.9999764033928928 -0.006869690867445875 -2.190799263046577e-06
-0.9999775061504754 -0.006707249026954977 -1.888346746036811e-06
-0.9999785903351627 -0.006543612812935726 -1.629402678654381e-06
-0.9999796277182149 -0.006383114174376279 -1.405932170288067e-06
-0.9999805986893145 -0.006229144680888217 -1.226321570324812e-06
-0.9999814906734396 -0.006084267362149264 -1.091271286928189e-06
-0.9999822967846965 -0.005950303874461113 -1.00201732366782e-06
-0.9999830146901698 -0.0058284071791946 -9.555620638765052e-07
-0.9999836458409747 -0.005719095180132711 -9.552811300307163e-07
-0.999984194842815 -0.005622282772039449 -9.988516450647848e-07
-0.9999846691624787 -0.005537277202746133 -1.089895319831157e-06
-0.9999850789606272 -0.005462769865683294 -1.22575375805518e-06
-0.9999854372389334 -0.005396786828262046 -1.410448083538245e-06
-0.9999857600545381 -0.005336636155052001 -1.641883772436368e-06
-0.9999860669754713 -0.005278811534637849 -1.926102006262877e-06
-0.9999863815101602 -0.005218887727389011 -2.259383692346698e-06
-0.9999867316677948 -0.005151357236493129 -2.642584363897741e-06
-0.999987150200436 -0.005069459985421275 -3.076704621961735e-06
-0.9999876744415208 -0.004964972528697804 -3.581568037964131e-06
-0.999988345321801 -0.004827960580954859 -4.146664189275215e-06
-0.9999892054219771 -0.004646398290362537 -4.738081706235509e-06
-0.9999902944230884 -0.004405795147262891 -5.361413544807543e-06
-0.9999916405286872 -0.004088867261679213 -6.104157353675968e-06
-0.9999932468643954 -0.003675075116378256 -6.963677393425592e-06
-0.9999950707554119 -0.003139809534018512 -7.808228492944533e-06