# OOMMF: rectangular mesh v1.0
# Segment count: 1
# Begin: Segment
# Begin: Header
# Title: 
# Desc: time = 1.8680736922154184e-10
# Desc: stepsize = 3.8167182760255746e-13
# Desc: step = 400
# meshunit: m
# valueunit: (none)
# valuemultiplier: 800000.0000000002
# xmin: 0
# ymin: 0
# zmin: 0
# xmax: 4e-07
# ymax: 1e-07
# zmax: 4e-09
# ValueRangeMaxMag: 1
# ValueRangeMinMag: 0.9999999999999996
# meshtype: rectangular
# xbase: 2e-09
# ybase: 2e-09
# zbase: 1e-09
# xstepsize: 4e-09
# ystepsize: 4e-09
# zstepsize: 2e-09
# xnodes: 100
# ynodes: 25
# znodes: 2
# End: Header
# Begin: Data Text
-0.9440555393972718 0.3297806360668917 -0.001967386246335375
-0.9509024195800487 0.3094894362586841 0.0009366328470794772
-0.9592062812249439 0.2827035885917477 0.001411047823831278
-0.9672378007244121 0.2538682911672666 0.001388376610925303
-0.974281652976892 0.2253300847705224 0.001270263722084845
-0.980141744661632 0.1982949062498264 0.001136013654931821
-0.9848636261079114 0.1733280949672413 0.001004721156481221
-0.9885887455294823 0.1506370285073311 0.00088196084125938
-0.9914832668339096 0.1302318682174161 0.0007694731700594842
-0.9937059592013496 0.1120179486944327 0.0006676960512943418
-0.995395721380208 0.09584897314436057 0.0005763724026129233
-0.9966685303822713 0.08155731515419025 0.0004948641056180936
-0.9976185676204609 0.06897111776841515 0.0004224365930805637
-0.9983209538775395 0.05792361079539515 0.0003582756805120835
-0.9988348765180628 0.0482576266727469 0.0003015278748170785
-0.9992065326037997 0.03982765323692826 0.000251474711727256
-0.9994716986293356 0.03250047049564159 0.0002075007273674359
-0.999657889856383 0.02615482154157962 0.0001689911584820456
-0.9997861202800734 0.02068079673064431 0.0001354322864803626
-0.9998723190427852 0.01597918340551157 0.0001063470520028193
-0.9999284678874737 0.01196045592227799 8.125478528981604e-05
-0.9999634988243212 0.008543854382817389 5.976040937666279e-05
-0.9999839998378862 0.005656708102974676 4.149288609186105e-05
-0.9999947716020112 0.003233588272446779 2.599086433804498e-05
-0.9999992609584823 0.001215695898265159 1.288301181458455e-05
-0.9999998989295665 -0.0004495969191429453 1.861810581873559e-06
-0.9999983630066135 -0.001809400443415838 -7.35717543309985e-06
-0.9999957779516331 -0.002905831396413713 -1.492659654478403e-05
-0.999992869682107 -0.003776260456094289 -2.102169559144563e-05
-0.9999900813279503 -0.004453827361456191 -2.583705672628686e-05
-0.999987659909108 -0.004967812485149212 -2.947232538441984e-05
-0.9999857204163396 -0.005343962660743527 -3.203894759822623e-05
-0.9999842914648205 -0.005604969769984692 -3.372651898996406e-05
-0.9999833490726896 -0.005770647768609004 -3.466550809014317e-05
-0.9999828396407362 -0.005858258902269067 -3.502403402180514e-05
-0.9999826951919133 -0.005882864472944662 -3.496154436083591e-05
-0.999982844252683 -0.005857474384351915 -3.45564811998368e-05
-0.9999832183086813 -0.005793267478751494 -3.395484243674559e-05
-0.9999837552733515 -0.005699832173272934 -3.320544880845386e-05
-0.9999844017961691 -0.005585259054335455 -3.233655995665973e-05
-0.9999851135895241 -0.005456336967396841 -3.140453132732818e-05
-0.9999858549906363 -0.005318730607381991 -3.038703239619157e-05
-0.9999865988210667 -0.005176999014443949 -2.931687433816214e-05
-0.9999873246529805 -0.005034852316026355 -2.820514835464788e-05
-0.9999880181539318 -0.004895182961936272 -2.706179569511419e-05
-0.9999886701060527 -0.004760145682675731 -2.593468077647602e-05
-0.9999892748541582 -0.004631366911269447 -2.484327053597799e-05
-0.9999898302839189 -0.004509851512676138 -2.383426899545651e-05
-0.9999903364850397 -0.004396181329741078 -2.294020908345447e-05
-0.9999907955029611 -0.004290503119727875 -2.218859957270442e-05
-0.9999912112570678 -0.004192486364986297 -2.160327312711514e-05
-0.9999915886865933 -0.004101476243263624 -2.118227913584683e-05
-0.9999919344127484 -0.004016300727723636 -2.0926391029283e-05
-0.9999922562349987 -0.003935357340652087 -2.079994519564265e-05
-0.9999925633216256 -0.00385653602979517 -2.07676454559027e-05
-0.9999928667231713 -0.003777045234169637 -2.078635408887966e-05
-0.9999931788899094 -0.00369347284981631 -2.07836744379381e-05
-0.9999935143754978 -0.003601496534322183 -2.072809118446891e-05
-0.9999938894274663 -0.003495809650660199 -2.055758450241194e-05
-0.9999943214459213 -0.003369965399193193 -2.022669526609354e-05
-0.9999948283614064 -0.003216031917565131 -1.972679389392902e-05
-0.9999954260700723 -0.003024479901969441 -1.898042684044427e-05
-0.9999961250747431 -0.00278379461840644 -1.797277542289123e-05
-0.9999969243417838 -0.002480127055905165 -1.663607936856987e-05
-0.9999978012161744 -0.002096984213237845 -1.483325640917643e-05
-0.9999986963544825 -0.001614662162278268 -1.246745166495597e-05
-0.9999994901632323 -0.001009745807973501 -9.310109926345332e-06
-0.9999999675829622 -0.0002545732736418206 -5.149993328529397e-06
-0.9999997663510892 0.0006835917645397893 2.566247912040205e-07
-0.9999983009858258 0.001843359040111462 7.273985971425081e-06
-0.9999946530577231 0.003270106160777609 1.617593442489145e-05
-0.9999874136893964 0.005017142643216025 2.724865739218433e-05
-0.9999744609508019 0.007146731840130225 4.086756392589903e-05
-0.9999526462097249 0.009731497430553801 5.741016888604804e-05
-0.999917357037685 0.0128558593725168 7.729530653319174e-05
-0.999861920953604 0.01661712444452208 0.0001010057602677679
-0.9997767945277294 0.02112686588785128 0.0001290798759236199
-0.9996484784094173 0.02651213442029345 0.0001623028553339364
-0.9994580951691185 0.03291618684736553 0.0002016044306392331
-0.9991795547711531 0.04049883785628643 0.0002479104876969222
-0.9987772465243029 0.0494360236953835 0.0003023020353987264
-0.9982032235652536 0.05991819880775669 0.0003659447637057544
-0.9973938651544424 0.0721476550438357 0.000440027223213764
-0.9962661085838835 0.08633402791479815 0.0005258432579953179
-0.9947134633218127 0.1026875634819007 0.000624653884090805
-0.9926021208431556 0.1214104020313999 0.0007375474513248312
-0.9897676694994832 0.1426857075994472 0.0008655982937986336
-0.9860130311434184 0.166665181663834 0.001009770434033858
-0.9811081985430871 0.193456279527156 0.001170753197232044
-0.974792277352732 0.2231102784285677 0.001348952557051268
-0.9667780562198482 0.2556126077903415 0.001544263705637066
-0.956758800704291 0.2908771460213868 0.001755903567720655
-0.9444168106773632 0.3287445159866272 0.001982654461889034
-0.9294338081499686 0.3689821870437784 0.002223041213474707
-0.9115054243709497 0.4112806024377166 0.002475358722164384
-0.8903682999401445 0.4552326790710864 0.002738314711212019
-0.8658642703722764 0.500269905835403 0.003014400126403071
-0.8381127937645614 0.5454867990308515 0.003331217680815115
-0.808046520760724 0.5891058741661854 0.003884496026862862
-0.7796892698195831 0.6261399233965206 0.005782634106038874
-0.9252804894719169 0.379268862476832 -0.003338526342456097
-0.9365735257674221 0.3504711321184368 -0.0001279968774719246
-0.9485051005650883 0.3167614513638107 0.0005070817523969658
-0.9592097941533715 0.2826945650235769 0.0005947321889985572
-0.9682481685946274 0.2499903138380606 0.0005718393981758974
-0.9756168305384458 0.2194801246912197 0.0005242476932276787
-0.9814852511006744 0.1915371485591496 0.0004717983422574067
-0.986081001751566 0.166265094012759 0.0004201161221967105
-0.9896341926119555 0.1436106787283889 0.0003711717309246128
-0.9923526767160706 0.1234344313476828 0.0003258409480073136
-0.9944134658491909 0.1055546211316842 0.0002844214239440029
-0.995962164600273 0.08977363609027195 0.0002468762232442106
-0.9971159137604285 0.0758934063547093 0.0002130670883774675
-0.9979675472737048 0.06372394523160309 0.0001827364915156399
-0.9985898557126507 0.05308743612807695 0.000155541423479349
-0.999039433643311 0.04382000460067196 0.0001312343275282133
-0.9993599665334894 0.03577212982406602 0.0001096267901159866
-0.999584956474236 0.02880809961546337 9.048173687071305e-05
-0.9997399249019255 0.02280519977032914 7.362422917485787e-05
-0.9998441737350972 0.01765289722261691 5.888656925905424e-05
-0.9999121917773909 0.0132516645460034 4.606184704567787e-05
-0.9999547602939858 0.009511894690467228 3.499706926302455e-05
-0.9999798185598668 0.006353095342739253 2.554488710606685e-05
-0.9999931439611053 0.00370293484752472 1.744415809752178e-05
-0.999998880156508 0.001496521155037852 1.04958051822762e-05
-0.9999999474537683 -0.0003241477075293187 4.552348325677505e-06
-0.9999983603040361 -0.001810908326902818 -5.198691468792284e-07
-0.9999954698445009 -0.003010027902502323 -4.74355348614951e-06
-0.9999921491684132 -0.003962516192998369 -8.182806085517295e-06
-0.9999889328205557 -0.004704690946637789 -1.093170533575974e-05
-0.9999861207370454 -0.005268601739893355 -1.299927736462825e-05
-0.9999838549060285 -0.005682404365338571 -1.441899327085737e-05
-0.9999821740230458 -0.005970879464400106 -1.531549550514257e-05
-0.9999810536930633 -0.00615564833485843 -1.576351054798178e-05
-0.999980433836697 -0.006255532880730864 -1.587921400928104e-05
-0.9999802368965071 -0.006286936257444553 -1.577655829199453e-05
-0.9999803807232005 -0.006264018568580704 -1.549371850608953e-05
-0.9999807862835844 -0.006198938172815289 -1.513914452858278e-05
-0.9999813818274068 -0.006102112876572387 -1.473061652442675e-05
-0.9999821055833795 -0.005982333109021329 -1.426897433549894e-05
-0.9999829062209169 -0.005846971512030743 -1.378790273036374e-05
-0.999983742377848 -0.005702175418623046 -1.324722062507164e-05
-0.9999845824532112 -0.005552899738837169 -1.266361505198972e-05
-0.9999854026840991 -0.00540317257211493 -1.203642650401148e-05
-0.9999861863310301 -0.005256140973106503 -1.13662886414663e-05
-0.999986922546506 -0.005114158933256792 -1.069453229482608e-05
-0.9999876046407375 -0.004979002321830453 -1.003785676177778e-05
-0.9999882299733051 -0.004851785827321067 -9.44148579677237e-06
-0.9999887984850631 -0.004733162209194538 -8.938751623914419e-06
-0.9999893123856446 -0.004623314962364791 -8.5582652252969e-06
-0.9999897760338768 -0.004521919769869098 -8.325330168965914e-06
-0.99999019502283 -0.0044282942871602 -8.240663522247462e-06
-0.9999905768705369 -0.004341209638596096 -8.306882553627564e-06
-0.9999909304999592 -0.004258972376635785 -8.492362595863336e-06
-0.9999912664668994 -0.004179343616686116 -8.766972695620256e-06
-0.9999915975278153 -0.004099364713898682 -9.094512883131128e-06
-0.9999919381805669 -0.004015405986449063 -9.414721130794885e-06
-0.9999923054635622 -0.00392287132017699 -9.709503310038777e-06
-0.9999927185678623 -0.003816112228602971 -9.93550861166129e-06
-0.9999931983154481 -0.003688254521505029 -1.007099614628992e-05
-0.9999937665049848 -0.003530842463248805 -1.013276797464285e-05
-0.9999944431369333 -0.003333705700702992 -1.007748619851054e-05
-0.9999952427158492 -0.003084549738401391 -9.928796552073566e-06
-0.9999961674055988 -0.002768588218673681 -9.663770252629022e-06
-0.9999971957593764 -0.002368203685643657 -9.202504390772975e-06
-0.9999982657907129 -0.001862348816620276 -8.511825733692763e-06
-0.9999992484162029 -0.001226014547239817 -7.440323848389832e-06
-0.9999999076840276 -0.0004296480790934566 -5.870591126173629e-06
-0.9999998422275743 0.0005617218100206998 -3.665260149642059e-06
-0.999998399137959 0.00178933540045012 -5.863307129864029e-07
-0.9999945494748369 0.00330166752238058 3.4913103448796e-06
-0.9999867094840794 0.005155655128961748 8.682975176509995e-06
-0.9999724876927784 0.00741779129090827 1.516180064971553e-05
-0.9999483284574554 0.01016562260264647 2.307034508535254e-05
-0.9999090151873099 0.01348926562057473 3.256012277567376e-05
-0.9998469922194958 0.01749257645712046 4.380090043752301e-05
-0.9997514427291349 0.02229460730818633 5.697356057745503e-05
-0.9996070553402505 0.02803086981438476 7.246683220910925e-05
-0.9993924075193061 0.03485408949142161 9.076612039035259e-05
-0.999077881212676 0.04293453922930763 0.0001123065296122816
-0.9986230432357058 0.05245949460963283 0.0001376370563930561
-0.9979734541469573 0.06363141372512165 0.0001673479397713821
-0.9970568960218865 0.07666488950547329 0.0002020205778485105
-0.9957791357255518 0.09178155657724633 0.0002423343360152248
-0.9940194849210628 0.1092024730017637 0.0002889421455027606
-0.9916265488299116 0.129138183550847 0.0003423519621461877
-0.9884147956736203 0.1517762471246574 0.0004031156531218825
-0.9841627191210666 0.1772668038396313 0.0004717506861203978
-0.9786133393184135 0.2057076351331287 0.0005485945668555483
-0.9714777005998542 0.23713008139728 0.0006338246910342865
-0.9624416636403839 0.2714875967700014 0.0007272476737283301
-0.9511756021708367 0.3086491341647187 0.0008281390675333323
-0.9373462768081132 0.3483978791219995 0.0009355090914860521
-0.9206305283130934 0.3904335171741782 0.001048334371616341
-0.9007326340829962 0.4343723781843001 0.001165748009776001
-0.877414047856402 0.479732143058572 0.001288231606785159
-0.8505634843264025 0.5258704534569659 0.001423134390827273
-0.8203981868033371 0.5717903480582869 0.001616464407115032
-0.7881484573774764 0.6154814172808046 0.002152699587939894
-0.758947478685299 0.6511361430551976 0.004521924858758486
-0.8998281105233163 0.4362300354713541 -0.003567585275634178
-0.9157592829214325 0.4017272532731994 -0.0003869377132019529
-0.9324682392215327 0.3612518513663522 0.0002876238466221737
-0.9470834663086418 0.3209871282456571 0.0004139389004226259
-0.9591443905992 0.2829167017602707 0.0004217193125762883
-0.9688147836738193 0.2477857058361455 0.0003986456232887725
-0.9764276020048022 0.2158448606860537 0.0003662766289365295
-0.9823409037700221 0.1870995430559501 0.0003313133716236499
-0.9868854021927845 0.1614221641112344 0.0002964328438236418
-0.9903463239138246 0.1386148965106292 0.0002630127768675682
-0.9929602658101626 0.1184476965716849 0.000231730604086584
-0.9949186983094356 0.1006813915543297 0.0002028520183738699
-0.9963739866775803 0.08508141704740506 0.0001764806790138928
-0.9974459284931015 0.07142546088395631 0.0001525452356084696
-0.9982278795353693 0.05950700292127648 0.000130849710851933
-0.9987920565721826 0.04913670060572717 0.0001112739520890445
-0.9991939612836214 0.04014248307279869 9.373950301090407e-05
-0.9994759930703386 0.03236870675730827 7.809557672885616e-05
-0.9996703390303876 0.02567506838055462 6.423802149205417e-05
-0.9998012659372938 0.01993554411837398 5.206619363215064e-05
-0.9998869373759789 0.01503697936988297 4.142842445234543e-05
-0.9999408347716485 0.01087777175754025 3.22144216174397e-05
-0.9999728639090325 0.007366875467164857 2.431910574848445e-05
-0.9999902196999603 0.00442269121018135 1.751809699266946e-05
-0.9999980551625561 0.001972190577699014 1.163743376693203e-05
-0.9999999987402136 -4.976487746312064e-05 6.55969752493184e-06
-0.999998552860393 -0.001701256106409949 2.186242477067987e-06
-0.9999953973900674 -0.003034006673274522 -1.479059859879559e-06
-0.9999916204287045 -0.004093782153221337 -4.478345035922962e-06
-0.9999878916540277 -0.004921026105079149 -6.885145424711135e-06
-0.9999845910078705 -0.005551366612631834 -8.692155612766321e-06
-0.9999819032978692 -0.006016060035712451 -9.920535491048679e-06
-0.9999798857057252 -0.006342560188131591 -1.068756597108479e-05
-0.9999785170685134 -0.006554790540933038 -1.106439407514044e-05
-0.9999777315511351 -0.006673550577011719 -1.115981653942321e-05
-0.9999774410641322 -0.006716936802105296 -1.108268732666051e-05
-0.9999775509597638 -0.00670055657528314 -1.086711556279012e-05
-0.9999779695291291 -0.006637796606237606 -1.061196369937068e-05
-0.9999786131940187 -0.006540110696173297 -1.032707037218453e-05
-0.999979409760715 -0.006417160941910002 -1.000285973538388e-05
-0.9999802991173842 -0.00627704418742414 -9.663102388503143e-06
-0.9999812327481112 -0.006126505185071698 -9.262017911460857e-06
-0.9999821734376898 -0.005970990639422582 -8.810102541624067e-06
-0.9999830931474317 -0.005814924790621219 -8.305078902871944e-06
-0.9999839719904581 -0.005661775530780909 -7.747624121431623e-06
-0.999984796921242 -0.005514152231582314 -7.179754900720134e-06
-0.9999855598011643 -0.005374025056032778 -6.621856288113882e-06
-0.9999862571595308 -0.005242657207402124 -6.121913841662012e-06
-0.9999868885916764 -0.005120801895219154 -5.717336874801698e-06
-0.9999874563568703 -0.005008702359394185 -5.439794047591196e-06
-0.9999879652018712 -0.004906059840696019 -5.316097190830168e-06
-0.9999884213959501 -0.004812176787150004 -5.34833428980736e-06
-0.9999888334307048 -0.004725778585422539 -5.53710912650962e-06
-0.9999892115039697 -0.004645087883870527 -5.849784781356146e-06
-0.9999895678030728 -0.004567739693381475 -6.254344831701521e-06
-0.9999899171410433 -0.004490609223342682 -6.712076571059746e-06
-0.99999027657071 -0.004409842707165456 -7.164652504107696e-06
-0.999990666308833 -0.004320559865145485 -7.593905544957138e-06
-0.9999911094205651 -0.004216754256094491 -7.960600897533155e-06
-0.9999916313845079 -0.004091099225785249 -8.250776867074733e-06
-0.9999922594605903 -0.003934583444513267 -8.486552652910311e-06
-0.9999930197741062 -0.003736352292083672 -8.63787934902987e-06
-0.9999939333411844 -0.003483274958157629 -8.740289966714708e-06
-0.9999950085443199 -0.003159558403725314 -8.782879447496365e-06
-0.9999962286687052 -0.002746374444206626 -8.705091571812759e-06
-0.9999975330337663 -0.002221228117191313 -8.487213751688211e-06
-0.999998787227125 -0.001557395375739857 -7.995129687194957e-06
-0.9999997384011702 -0.0007232888002842848 -7.134574287683698e-06
-0.999999949273606 0.0003184639303316299 -5.788775426041259e-06
-0.9999987008451642 0.001611922434448811 -3.748169244457039e-06
-0.9999948515269834 0.003208881218345378 -9.230974588602941e-07
-0.9999866346187338 0.005170162112101168 2.762779094340228e-06
-0.9999713714453257 0.007566784954522365 7.430069930610432e-06
-0.999945066795823 0.01048156560226033 1.3161386875028e-05
-0.9999018448864566 0.01401071699466562 2.004883076725538e-05
-0.9998331785605937 0.01826511031737412 2.818712292517291e-05
-0.9997268409377272 0.02337182255347784 3.767227557597598e-05
-0.9995655028851198 0.02947546538416456 4.880987646955104e-05
-0.9993248934198822 0.03673899220590476 6.199221877651292e-05
-0.998971426505558 0.04534405154760435 7.755448658228958e-05
-0.9984592180296509 0.05549036606716897 9.59445109044738e-05
-0.9977264511192325 0.06739373040302997 0.000117640914782099
-0.9966910826110936 0.08128262645300273 0.000143109843763988
-0.9952460327112418 0.09739252778057284 0.0001729307498523927
-0.9932541719182636 0.1159573492352973 0.0002076662891508088
-0.9905435893679889 0.1371981639240829 0.0002477455162664629
-0.98690392777695 0.1613088686329706 0.0002936643995010889
-0.9820847620413917 0.1884393815570185 0.0003458966766270551
-0.975797001756942 0.2186779539667832 0.0004047357946762161
-0.9677182174830209 0.2520341848906292 0.0004703169147573409
-0.9575023492909422 0.2884249588852703 0.0005423968622382788
-0.9447933908786842 0.3276660860229358 0.000620179302636082
-0.9292421276314382 0.3694706681175199 0.0007025921936328417
-0.910525344824597 0.4134525058741144 0.0007885546673304434
-0.8883696186956481 0.4591281422273445 0.0008772647350723896
-0.8625906916089872 0.5059015303420422 0.0009697149624925086
-0.8331844161884783 0.5529941884384901 0.001075255281137984
-0.8005809263119874 0.5992233523675354 0.001246756933842183
-0.7664393004014356 0.6423142552822343 0.001787809102305353
-0.7365201531546189 0.6764025849872138 0.004196071938230364
-0.8707920967275058 0.4916384496471697 -0.00357198900348238
-0.891150165332666 0.4537082094188297 -0.0004934911559238386
-0.9128841788216966 0.4082186208925052 0.0001833402772641931
-0.9319721818277924 0.3625296431656801 0.000331851334740684
-0.9476755647115714 0.3192348570891736 0.0003606492184682038
-0.9602000436607863 0.2793129979900746 0.0003539881643688927
-0.9700075038241432 0.2430747438571729 0.0003338017735318363
-0.9775899575290939 0.2105178857657813 0.0003077514727135376
-0.9833939814071843 0.1814833305883214 0.0002793755468501921
-0.9877989739497558 0.1557341459239775 0.0002507132596538088
-0.9911160534466465 0.1329996951184538 0.0002229321474877748
-0.9935948285939411 0.1130012297236156 0.0001966528093739468
-0.9954326001195657 0.09546679504584848 0.0001722291326333893
-0.9967836503218767 0.08013945358847011 0.0001497649342618113
-0.9977676437482743 0.06678107815532645 0.0001291875712105689
-0.9984767608245343 0.05517377901322488 0.0001104660354532608
-0.9989815737530585 0.04511991292747587 9.359101870362488e-05
-0.9993358002518551 0.03644107817581512 7.846252560538582e-05
-0.999580081740687 0.02897681765219971 6.500793890274446e-05
-0.9997449628169923 0.02258332342489467 5.315201449523959e-05
-0.9998532391698219 0.01713179187352408 4.276466418366154e-05
-0.9999217854669581 0.01250687049802412 3.374782277454747e-05
-0.9999629721320651 0.008605445290359569 2.600310484099887e-05
-0.9999857667547596 0.005335345820205436 1.930994069241783e-05
-0.9999965826283588 0.00261429713055843 1.349506537496759e-05
-0.9999999318517272 0.0003690868966481648 8.450038794267295e-06
-0.9999989262874271 -0.001465403452366639 4.088288265613862e-06
-0.9999956575178712 -0.002947023112101822 4.202783871270723e-07
-0.9999914845195056 -0.004126848892469196 -2.58716214994736e-06
-0.9999872491288306 -0.005049906410326257 -5.000088063184033e-06
-0.9999834353310917 -0.005755781185801877 -6.809485568592208e-06
-0.9999802859547297 -0.006279143039436439 -8.036588763621667e-06
-0.9999778859929828 -0.006650371983182671 -8.802836264711269e-06
-0.9999762229463711 -0.006895901498666126 -9.188554581894833e-06
-0.999975228146133 -0.007038679386039008 -9.30532048147214e-06
-0.9999748043409797 -0.007098633486325882 -9.265313174777734e-06
-0.9999748448076078 -0.007092930921902001 -9.107002723903068e-06
-0.9999752450538963 -0.007036277407477348 -8.924372152113249e-06
-0.999975909302524 -0.006941234651700764 -8.723516326304602e-06
-0.9999767544413786 -0.006818394595052692 -8.48718574978032e-06
-0.9999777110583101 -0.006676624810420864 -8.2294429241476e-06
-0.9999787229867354 -0.006523305251202181 -7.900443352992335e-06
-0.9999797469262329 -0.006364407358249097 -7.504991765620745e-06
-0.9999807501474313 -0.006204779207344364 -7.040500599241991e-06
-0.9999817092449548 -0.006048233886884196 -6.5106340086654e-06
-0.9999826086448463 -0.005897658206485352 -5.960461406535684e-06
-0.9999834384774271 -0.005755236008394388 -5.417449773722673e-06
-0.9999841941824132 -0.00562239815330835 -4.935046123012062e-06
-0.9999848747852833 -0.005500016354130832 -4.556844761413072e-06
-0.9999854823945779 -0.005388411771718813 -4.319847302986113e-06
-0.9999860219603802 -0.005287330684427349 -4.252855105647683e-06
-0.9999865002766026 -0.005196079825414123 -4.358905525262538e-06
-0.9999869266750669 -0.005113360682297059 -4.635326195883229e-06
-0.9999873125310588 -0.005037335749087884 -5.045954721010557e-06
-0.9999876716141162 -0.004965540145090454 -5.553918646427106e-06
-0.9999880208013107 -0.004894713116975894 -6.113911962969416e-06
-0.9999883798066637 -0.004820809809147231 -6.665398838610798e-06
-0.999988772251174 -0.004738704458545749 -7.186346770136882e-06
-0.999989225473124 -0.00464207704845746 -7.637911195980527e-06
-0.9999897702471621 -0.004523199846851897 -8.010805636256073e-06
-0.999990440247823 -0.004372567162540639 -8.329100823307571e-06
-0.9999912691129551 -0.004178710849182852 -8.573199117665009e-06
-0.9999922863301441 -0.003927747828839034 -8.786540461556218e-06
-0.9999935092150435 -0.003602977575107586 -8.965233284237205e-06
-0.9999949294943173 -0.003184478534333983 -9.061968268698114e-06
-0.9999964928103088 -0.002648449544429435 -9.06049210834114e-06
-0.9999980661580492 -0.001966622017844533 -8.831766605314846e-06
-0.9999993888125895 -0.001105579372813682 -8.288411166107764e-06
-0.99999999964049 -2.579741639270561e-05 -7.31523705541737e-06
-0.9999991297057598 0.001319300991652539 -5.711035017642322e-06
-0.9999955464548512 0.00298446962094289 -3.397815472781683e-06
-0.9999873294045923 0.005033987502279206 -3.125953392523649e-07
-0.9999715519315583 0.007542898272292637 3.639267675825404e-06
-0.999943832194922 0.01059869722589925 8.511596367961415e-06
-0.9998977066573768 0.01430300718821096 1.437679325563756e-05
-0.9998237727995157 0.0187729297434396 2.130234163649303e-05
-0.9997085225579206 0.02414268136289852 2.935418716049392e-05
-0.9995327807065005 0.03056499282695106 3.881519098179148e-05
-0.9992696538143927 0.03821199367360648 5.005149363844379e-05
-0.9988818802490639 0.04727563107821466 6.337389770060873e-05
-0.9983184944184236 0.05796703742416633 7.921109326999642e-05
-0.9975107540899292 0.07051443729689123 9.801858528490523e-05
-0.9963673209631175 0.08515954003128104 0.000120243253153817
-0.9947688550938946 0.1021513753350816 0.0001464661494654477
-0.9925623817648827 0.1217369577526008 0.0001772635452030148
-0.9895560028395826 0.1441487836815823 0.0002130898128138329
-0.9855148962977062 0.169588691875957 0.0002544859967214065
-0.9801598087292118 0.1982086228229668 0.0003019777095483825
-0.9731693063018153 0.2300899272153783 0.0003559017635085122
-0.9641870104193422 0.2652229920868532 0.0004164217908094557
-0.9528345513059195 0.3034898421199081 0.0004832884023880972
-0.9387299496948378 0.3446531195401888 0.0005556411999545324
-0.9215104507881509 0.388353047236561 0.0006322897245137006
-0.9008591365754315 0.4341109410133652 0.0007119979339615407
-0.8765377560467849 0.4813324548292765 0.0007938214466710719
-0.8484384347175729 0.529293349892758 0.0008787794358916121
-0.8166938048559896 0.5770704247202126 0.0009767410503619047
-0.7819579919606083 0.6233300853189985 0.001141729014581884
-0.7462048587315155 0.6657142811270396 0.001674726541085775
-0.7154473091888702 0.6986550395786827 0.00403527517197699
-0.84020171687929 0.5422624660270119 -0.00353452845463898
-0.8645398564679722 0.5025639290858954 -0.0005777197282789968
-0.8910718105264853 0.4538623367469423 8.81343073937105e-05
-0.9147263277771303 0.4040738564161082 0.0002526507078913164
-0.9343556668018554 0.3563416862900423 0.0003008774309941096
-0.9500765245432615 0.3120168276734016 0.0003110633755842204
-0.9624050687488374 0.2716180981021872 0.0003040228541297542
-0.9719365049961658 0.2352431666654228 0.0002877378352658745
-0.9792264250887679 0.2027696659608305 0.0002664094671001862
-0.9847522716967835 0.1739623650917557 0.0002427338177639243
-0.9889073415470389 0.1485335723668297 0.0002184360675699519
-0.9920075936915835 0.1261780337582593 0.0001945639566420139
-0.9943026996813147 0.1065932075640744 0.0001717779119490505
-0.9959876534985332 0.08949062216899621 0.00015040708614213
-0.997213418416162 0.07460148181588844 0.0001305435804904258
-0.9980960274500279 0.06167906763589011 0.0001122677151235226
-0.9987240957220388 0.05049922251677801 9.565247692444584e-05
-0.9991648969300451 0.04085954277938049 8.066369845558693e-05
-0.9994691910602652 0.03257808460172979 6.726827595921985e-05
-0.9996750261227511 0.02549194138439706 5.541597939336054e-05
-0.999810724175264 0.0194554310952281 4.50003648526061e-05
-0.999897199934086 0.01433834971040341 3.593822582288037e-05
-0.9999497525506394 0.01002454898821195 2.81335589950164e-05
-0.9999794526163612 0.00641045151792402 2.136395179696021e-05
-0.9999942068488012 0.003403825791361954 1.545375016364515e-05
-0.9999995741759814 0.0009227901899159233 1.030149459247045e-05
-0.9999993891322752 -0.001105305872294144 5.831352474758219e-06
-0.9999962329143687 -0.002744841130612533 2.058909765822154e-06
-0.9999917884573976 -0.004052532133169483 -1.041609694833171e-06
-0.999987105586172 -0.005078252546871685 -3.529827772017415e-06
-0.9999827962875029 -0.005865756551750396 -5.39459198451908e-06
-0.9999791772783743 -0.006453291048051527 -6.656905223514438e-06
-0.9999763717796171 -0.00687428738482903 -7.444717864162764e-06
-0.9999743826840022 -0.007157786954681763 -7.852347065268166e-06
-0.9999731427733148 -0.007328960915295846 -7.99758509525968e-06
-0.9999725483311228 -0.007409623485903911 -7.997286126966155e-06
-0.999972482202493 -0.007418542676487795 -7.895649223151137e-06
-0.9999728280810101 -0.007371773132307712 -7.781501675149069e-06
-0.9999734785323012 -0.007283005792145204 -7.657685739908755e-06
-0.9999743397797083 -0.007163778742907396 -7.500580547497814e-06
-0.9999753331861531 -0.007023743001355227 -7.313884133777312e-06
-0.9999763949013972 -0.006870923546877586 -7.04395764963163e-06
-0.9999774754227222 -0.006711825567960103 -6.689079182393027e-06
-0.999978537172416 -0.006551729200428161 -6.244898761440362e-06
-0.9999795530425299 -0.006394799774894407 -5.71844028949191e-06
-0.999980504721468 -0.006244209348717886 -5.158187019909234e-06
-0.9999813803936265 -0.00610236387714578 -4.600859103453633e-06
-0.9999821741770807 -0.00597087189638676 -4.10792076668739e-06
-0.9999828842883171 -0.005850736406471766 -3.730924855519809e-06
-0.9999835124437448 -0.005742371314779241 -3.514751966013084e-06
-0.9999840635498436 -0.005645585368722125 -3.490874536224267e-06
-0.9999845446869913 -0.005559709860491101 -3.662989936387769e-06
-0.9999849657925283 -0.005483445332783472 -4.024652368823395e-06
-0.999985339198008 -0.005414920912810437 -4.533459338014835e-06
-0.9999856800534719 -0.00535160363991714 -5.14548907303678e-06
-0.9999860071279173 -0.005290133708107375 -5.806480977883488e-06
-0.9999863426793507 -0.005226319274802197 -6.450891434552205e-06
-0.9999867136916389 -0.005154841458736947 -7.052025694711225e-06
-0.9999871518621657 -0.005069127468324238 -7.569921422951437e-06
-0.9999876935273097 -0.004961121843003766 -7.999361877167561e-06
-0.9999883793054494 -0.004820911121690631 -8.367606724083563e-06
-0.9999892512637208 -0.004636516141236928 -8.665738620094653e-06
-0.9999903488153535 -0.004393426467166145 -8.945638534809261e-06
-0.9999917004409131 -0.0040741826731913 -9.210648967406521e-06
-0.9999933096353373 -0.003657949662855718 -9.424855430161132e-06
-0.9999951332435005 -0.003119839363999339 -9.573741984269449e-06
-0.9999970467676904 -0.002430301432496659 -9.531234825811305e-06
-0.9999987918657834 -0.001554407316773746 -9.212304820292846e-06