# OOMMF: rectangular mesh v1.0
# Segment count: 1
# Begin: Segment
# Begin: Header
# Title: 
# Desc: time = 3.235661933042034e-11
# Desc: stepsize = 5.473181125903784e-13
# Desc: step = 60
# meshunit: m
# valueunit: (none)
# valuemultiplier: 800000.0000000002
# xmin: 0
# ymin: 0
# zmin: 0
# xmax: 4e-07
# ymax: 1e-07
# zmax: 4e-09
# ValueRangeMaxMag: 1
# ValueRangeMinMag: 0.9999999999999996
# meshtype: rectangular
# xbase: 2e-09
# ybase: 2e-09
# zbase: 1e-09
# xstepsize: 4e-09
# ystepsize: 4e-09
# zstepsize: 2e-09
# xnodes: 100
# ynodes: 25
# znodes: 2
# End: Header
# Begin: Data Text
-0.9441596443925329 0.3294788193630981 -0.002504693926291682
-0.9509912745146493 0.3092173589536256 0.0004698071379353363
-0.9592779067753789 0.2824621535438629 0.001014587605852544
-0.9672942716844715 0.2536546578689259 0.001051906747628799
-0.9743257614082377 0.2251407217945905 0.0009828764257193711
-0.9801760429580254 0.1981265647237912 0.0008883478462651549
-0.9848902124637379 0.1731780773598084 0.0007892497027635705
-0.9886092810043328 0.1505031875802091 0.0006928494008284224
-0.9914990387128632 0.1301126187599978 0.0006022216230144393
-0.993717964621985 0.1119121874846656 0.0005187291545267304
-0.9954047477137669 0.09575589809002745 0.0004429558260617643
-0.9966752113296268 0.08147626942302802 0.0003750225991887164
-0.9976234217465983 0.06890144622428161 0.0003147869287148163
-0.9983244180916914 0.05786439015884227 0.0002619034757821131
-0.9988373099438187 0.04820769333021065 0.0002157961436153878
-0.9992082197600671 0.039785709389239 0.0001757620889352343
-0.9994728563702496 0.0324652044802197 0.0001409863513995332
-0.9996586724568038 0.02612520466196751 0.0001107396513314606
-0.9997866350800763 0.0206561655535176 8.449783221818841e-05
-0.9998726440766748 0.01595906622369407 6.190627466214683e-05
-0.9999286623853402 0.01194438394303318 4.280753753159241e-05
-0.9999636089314512 0.008531124593887923 2.694348025288005e-05
-0.9999840587179688 0.005646425470836727 1.376009743062192e-05
-0.9999947994524971 0.003225067485927987 2.769605615024075e-06
-0.9999992697269229 0.001208514192354168 -6.250382420132428e-06
-0.9999998960100509 -0.0004558487494450233 -1.348348997178448e-05
-0.9999983525269086 -0.001815096462168697 -1.919118119629188e-05
-0.9999957622466947 -0.0029111734221403 -2.362114013694051e-05
-0.9999928501469649 -0.003781392325535111 -2.696348521364301e-05
-0.9999900587504322 -0.004458871722627118 -2.938142465359364e-05
-0.9999876345685786 -0.004972901295246295 -3.102653516685243e-05
-0.9999856919440755 -0.005349287895580787 -3.203339079107556e-05
-0.9999842594446963 -0.005610686715113509 -3.251809894923817e-05
-0.9999833129941132 -0.005776908497206764 -3.258115371614491e-05
-0.9999827990261146 -0.005865203148896573 -3.230973170633297e-05
-0.9999826502132179 -0.005890523123150504 -3.1778674989325e-05
-0.9999827957552787 -0.005865767573780698 -3.105199446484291e-05
-0.9999831677617437 -0.005802006732483515 -3.018383664316024e-05
-0.9999837048816864 -0.005708687877837363 -2.922001244225751e-05
-0.9999843540567289 -0.005593822180185555 -2.819862720599361e-05
-0.9999850710280682 -0.005464154443712899 -2.715150469130702e-05
-0.9999858200736347 -0.005325314095347156 -2.610451521791766e-05
-0.9999865732894961 -0.005181950576646454 -2.507891985864994e-05
-0.999987309660028 -0.005037850583722693 -2.409139596830535e-05
-0.9999880140507905 -0.004896041113697222 -2.315531212923472e-05
-0.9999886762419206 -0.004758875025891567 -2.228046162651523e-05
-0.9999892900398274 -0.004628103769007783 -2.147428164789185e-05
-0.9999898525234959 -0.004504932833534223 -2.074130611848358e-05
-0.9999903634144123 -0.004390065481345884 -2.008433875796101e-05
-0.9999908246004108 -0.004283729052847447 -1.950363481329567e-05
-0.9999912397814362 -0.004185689842859676 -1.899803038928518e-05
-0.9999916142572256 -0.00409524976177498 -1.856385674942172e-05
-0.9999919548149252 -0.004011231024148511 -1.819601793533612e-05
-0.9999922697316012 -0.00393194062880559 -1.788663208704925e-05
-0.9999925688372385 -0.003855121220260731 -1.762603531212505e-05
-0.99999286363998 -0.003777878546567881 -1.740113220942534e-05
-0.9999931674330855 -0.003696591867137536 -1.719628594428044e-05
-0.9999934953452466 -0.003606796153126142 -1.699134313393751e-05
-0.9999938641894216 -0.003503041897001784 -1.676234740710595e-05
-0.9999942919748909 -0.003378719590738341 -1.647918139818997e-05
-0.9999947967893603 -0.003225854119741593 -1.610601185128326e-05
-0.9999953946976946 -0.00303485421223924 -1.55984623992176e-05
-0.9999960960460651 -0.002794220912740499 -1.490366058087155e-05
-0.9999968993533701 -0.002490198556818334 -1.395681614311345e-05
-0.9999977815182824 -0.002106370744410927 -1.268069480417712e-05
-0.9999986825773107 -0.001623182999728268 -1.098143118723866e-05
-0.9999994824166853 -0.00101739365418907 -8.747185830288551e-06
-0.9999999658091695 -0.0002614335848022626 -5.842942198563384e-06
-0.9999997706138749 0.0006773239645454285 -2.108132276206119e-06
-0.9999983119736593 0.001837401102326686 2.649712935052901e-06
-0.9999946725889406 0.003264156668192035 8.659229172557079e-06
-0.9999874455085154 0.005010844550342087 1.619399671332622e-05
-0.9999745111569882 0.00713977466045392 2.557616708930021e-05
-0.9999527243209078 0.009723566251211138 3.718269652832801e-05
-0.9999174794937778 0.01284646077735863 5.146169138719817e-05
-0.9998621137230725 0.0166056853474833 6.895918594583692e-05
-0.99977709649318 0.02111277276662595 9.029823260924568e-05
-0.9996489483810503 0.02649465062607335 0.0001161415605135321
-0.99945882206026 0.03289439640755448 0.0001472783070171617
-0.9991806682355929 0.04047169491834678 0.0001847558119631733
-0.9987789198752 0.04940259538209237 0.0002297442960936883
-0.9982056692945773 0.05987788830985111 0.0002833367562987457
-0.9973973457377866 0.07210003141472841 0.0003466773904612259
-0.9962709556627358 0.08627865069639885 0.000421113841365883
-0.9947200871533967 0.1026240225041071 0.000508152157307824
-0.9926110150777734 0.1213383754175107 0.0006094237534504119
-0.9897793881123622 0.1426051719506239 0.0007264990366207807
-0.9860281326125537 0.1665766518157532 0.0008606779029943081
-0.9811271862069636 0.1933608504865555 0.001012909039130507
-0.9748155529038569 0.2230094993249574 0.00118365010842314
-0.9668058652817689 0.2555083837973511 0.001372831393514636
-0.9567911869136607 0.2907716092865161 0.001579834572840804
-0.9444536092449913 0.3286398140663908 0.001803495083696103
-0.929474655514181 0.3688803252420478 0.002042157220951165
-0.911549827130547 0.4111832331703644 0.002293778070131469
-0.8904157451845918 0.4551409287952349 0.002556494235981501
-0.8659142739972258 0.5001844168354926 0.002831826759387233
-0.8381649116304202 0.5454078130091607 0.003146175477243833
-0.8081003725022722 0.5890332256135423 0.00369419612282592
-0.7797444670572571 0.626072981956503 0.005584564234226059
-0.9254029421802671 0.3789650568041648 -0.003857502497861956
-0.9366776990984199 0.35019216464983 -0.0005795080292013759
-0.9485890348776316 0.3165103913676224 0.0001227446023048759
-0.9592760554199071 0.2824701363526783 0.0002675199471103127
-0.9683000178358417 0.2497898927988795 0.0002914011535202957
-0.9756572156780368 0.2193009760342423 0.0002817903635604134
-0.9815165967057813 0.1913768602655216 0.0002602806390868061
-0.9861052347592247 0.1661216758511632 0.0002340787364838045
-0.9896528143001817 0.1434826280584436 0.0002063811336755535
-0.9923668563131897 0.1233206814968596 0.0001789028413364773
-0.994424129923737 0.1054543811401494 0.0001527212051850384
-0.9959700601937207 0.08968624578021382 0.0001285129062712316
-0.9971216530396624 0.07581818815289847 0.0001066989355702621
-0.9979716456821252 0.06365993058487357 8.747822445471426e-05
-0.9985927365794345 0.05303339929260373 7.07832404929171e-05
-0.9990414321628998 0.04377457759336766 5.63775097485132e-05
-0.999361338379989 0.03573392543558242 4.38670885218461e-05
-0.9995858840075147 0.02877602145132385 3.289905163699326e-05
-0.9997405352925195 0.0227785326748868 2.328529658136071e-05
-0.9998445595305631 0.01763112455203496 1.49721423441776e-05
-0.9999124232362231 0.01323426585351676 8.073572419248426e-06
-0.9999548919325919 0.009498109992040231 2.580118355632076e-06
-0.9999798895042459 0.006341970016776058 -1.838978724945159e-06
-0.9999931781568828 0.003693725724649291 -5.474242433616594e-06
-0.9999988917659155 0.001488756813835273 -8.371953056819658e-06
-0.9999999451929584 -0.0003309118400119046 -1.055621766299656e-05
-0.9999983490458962 -0.001817074011130427 -1.214575685214199e-05
-0.9999954523257176 -0.00301581697439932 -1.326120608986964e-05
-0.9999921270239409 -0.003968084513137625 -1.397966206343806e-05
-0.9999889069842005 -0.004710170084581871 -1.436376925868808e-05
-0.9999860915568552 -0.005274133416026771 -1.447597445971051e-05
-0.9999838220100973 -0.005688190530751667 -1.437232804570512e-05
-0.999982136961822 -0.005977086118398272 -1.409968456430497e-05
-0.9999810119108411 -0.006162437028538175 -1.369813852799169e-05
-0.9999803868294593 -0.006263048947303171 -1.320181863111733e-05
-0.9999801848908416 -0.006295209758956867 -1.263994614739386e-05
-0.9999803247213722 -0.006272959848364467 -1.203657170004389e-05
-0.9999807279974918 -0.006208341434660335 -1.14121199149273e-05
-0.9999813237894428 -0.006111624664768923 -1.078285858034675e-05
-0.9999820506594094 -0.00599151531107115 -1.016263094037174e-05
-0.9999828573080969 -0.005855339315856141 -9.561897919374002e-06
-0.9999837022801152 -0.005709211271107384 -8.989708388095963e-06
-0.9999845531632303 -0.005558179872248234 -8.452318928364834e-06
-0.9999853854978171 -0.005406359911587017 -7.955409993430161e-06
-0.9999861816355807 -0.005257041145645825 -7.502279189088448e-06
-0.9999869295971394 -0.005112786376103716 -7.096316176393779e-06
-0.9999876220698123 -0.004975506180398805 -6.738774979902874e-06
-0.9999882555079779 -0.004846525017634567 -6.431516192878737e-06
-0.999988829433848 -0.004726623467039857 -6.174367994021578e-06
-0.9999893458579204 -0.00461607355110606 -5.968138183501566e-06
-0.9999898089041415 -0.004514648832882676 -5.8115759381277e-06
-0.9999902245365929 -0.004421628513470151 -5.704648334976117e-06
-0.9999906004712488 -0.004335774127396601 -5.645115547888807e-06
-0.9999909461552138 -0.004255299740273268 -5.632057088943499e-06
-0.9999912728914031 -0.004177811505052996 -5.662072485271977e-06
-0.9999915939692681 -0.004100238765544146 -5.733031400384951e-06
-0.9999919248567605 -0.004018729546259091 -5.839909669529291e-06
-0.9999922832637772 -0.003928533715224038 -5.97872430440351e-06
-0.9999926890640092 -0.003823843721568089 -6.14201045307374e-06
-0.9999931637729638 -0.003697616442912546 -6.322886133216685e-06
-0.9999937294021907 -0.003541343518426937 -6.510168144449788e-06
-0.9999944061407405 -0.003344793332561765 -6.692490667626122e-06
-0.9999952083190314 -0.003095689262855339 -6.85304513749046e-06
-0.9999961375840778 -0.002779346738674842 -6.973648886538777e-06
-0.9999971719792565 -0.002378231292615843 -7.029073874992442e-06
-0.99999824879486 -0.001871458880004648 -6.990926072261986e-06
-0.9999992383524837 -0.001234199303089818 -6.821482279007293e-06
-0.9999999044932123 -0.0004370029888270573 -6.477164726274541e-06
-0.9999998459766674 0.0005549881164803071 -5.901838706560496e-06
-0.9999984105772569 0.001782923907772333 -5.029762314931663e-06
-0.9999945706110888 0.003295259333206509 -3.777647431512314e-06
-0.9999867444686111 0.005148872001037687 -2.045776054671155e-06
-0.9999725432952488 0.00741030738552552 2.887174718705588e-07
-0.9999484152920818 0.01015710310624337 3.367940188818192e-06
-0.9999091515186106 0.01347919341015821 7.371779911883156e-06
-0.9998472070116717 0.01748034535834642 1.253443301593247e-05
-0.9997517795841616 0.02227956131615789 1.912749134802264e-05
-0.9996075804154321 0.02801221919886207 2.74145906859466e-05
-0.9993932206990985 0.03483086270042229 3.773893275319511e-05
-0.9990791283281644 0.04290562636406587 5.064920949633737e-05
-0.9986249195987086 0.05242390196181765 6.678001533374094e-05
-0.9979761997025175 0.06358849989327289 8.66524296502212e-05
-0.9970608069262819 0.07661419589882928 0.0001108074329565747
-0.9957845859537692 0.09172261872018872 0.0001399713927901554
-0.9940269367424072 0.1091348633177722 0.0001750403313156989
-0.9916365583470897 0.1290615707098735 0.0002170609108201723
-0.9884279864996375 0.151690619929792 0.0002670759950241181
-0.9841797179176685 0.1771727309834026 0.0003259376944420682
-0.9786347065291515 0.2056063125083878 0.000394250306883971
-0.9715038757559756 0.237023197958122 0.0004722508043466823
-0.9624729007229493 0.271377231936521 0.0005597860510550335
-0.9512119170970403 0.3085376120346916 0.0006563021430025999
-0.937387439849393 0.3482875373785808 0.0007608675073391931
-0.9206760778025737 0.3903265285569334 0.0008722767692820308
-0.9007819559585231 0.4342705252135109 0.0009893181076163693
-0.8774665081545447 0.4796366237272744 0.00111186625570435
-0.8506185062585966 0.525781897548108 0.001246202673880779
-0.820455302682629 0.5717088696038047 0.001436912069256129
-0.788207402733003 0.6154065496530994 0.001966957284786056
-0.7590081702730623 0.6510667257769672 0.004326204433084828
-0.8999715363812283 0.4359296457849988 -0.004071563505149287
-0.9158824508887473 0.401445700317419 -0.0008281610217330135
-0.932568416920637 0.360993267947996 -9.087553400234052e-05
-0.9471631385281924 0.320752211314624 8.916390824493285e-05
-0.9592070863176496 0.2827043430570957 0.0001413317394141545
-0.9688638231052051 0.2475941605756232 0.000154682958928912
-0.9764657818392334 0.2156723294506906 0.0001523364926150063
-0.9823704846295787 0.1869444052436875 0.0001423963846224138
-0.9869081690332617 0.161283134129954 0.0001286103949799301
-0.990363682224755 0.1384910254985808 0.0001130777394595039
-0.9929733370629197 0.1183382543363039 9.717389329640763e-05
-0.9949283901541507 0.1005857433755532 8.182210425543914e-05
-0.9963810444497977 0.08499888049023691 6.765010105888155e-05
-0.9974509793961946 0.07135503256888874 5.503330514517233e-05
-0.9982314383814903 0.05944740100314054 4.405442695739104e-05
-0.9987945311437008 0.0490864885708109 3.460090465861816e-05
-0.9991956632491684 0.04010019760680358 2.638084694976792e-05
-0.9994771459967514 0.03233317591225951 1.912105818114252e-05
-0.9996710996294098 0.02564551431383227 1.270060338616017e-05
-0.999801748590524 0.01991139032282494 7.123361208431939e-06
-0.9998872288776162 0.01501764032406445 2.556990075285428e-06
-0.9999410021954231 0.01086241812409018 -9.538709323190742e-07
-0.9999729554317836 0.007354481041754187 -3.691980485258296e-06
-0.9999902651333622 0.004412437369084391 -5.91368780005083e-06
-0.9999980722213567 0.001963541511960526 -7.635466261196899e-06
-0.9999999983190606 -5.730213612990706e-05 -8.851214622940743e-06
-0.9999985411174436 -0.001708118798979665 -9.651555836410661e-06
-0.9999953777987594 -0.003040440498088746 -1.013378716197692e-05
-0.9999915950952795 -0.004099955071283634 -1.035429787429697e-05
-0.9999878617979409 -0.004927083266807253 -1.035682081047453e-05
-0.9999845571184048 -0.005557465333559227 -1.018692322350588e-05
-0.9999818650358182 -0.006022416604957653 -9.885486747637524e-06
-0.9999798425926995 -0.006349355738126371 -9.486313754088505e-06
-0.9999784684919556 -0.006562200177465468 -9.017391622573975e-06
-0.9999776769666449 -0.006681728525823579 -8.502894056464554e-06
-0.9999773807508096 -0.006725914313289897 -7.96243190734183e-06
-0.9999774860990779 -0.006710233976501612 -7.412740784769972e-06
-0.9999779021341281 -0.006647946771483688 -6.86665211977001e-06
-0.9999785461920344 -0.006550352320932893 -6.335332052277054e-06
-0.999979346474514 -0.006427020340224579 -5.826630784836193e-06
-0.9999802428810718 -0.006286001822598761 -5.347755243688522e-06
-0.9999811867591886 -0.006134012034944311 -4.903006753839685e-06
-0.9999821399629159 -0.005976598946304934 -4.496925553054975e-06
-0.9999830736390521 -0.005818283108012665 -4.131399282822932e-06
-0.9999839668535663 -0.005662686755810989 -3.80929594772678e-06
-0.9999848053121205 -0.005512633890698793 -3.530943202422692e-06
-0.9999855801344835 -0.005370243218102411 -3.298263305519226e-06
-0.9999862868639484 -0.005236990965866878 -3.1106315033826e-06
-0.9999869245893728 -0.005113769790404949 -2.969518409672493e-06
-0.9999874953373452 -0.005000915984493803 -2.873742370978186e-06
-0.9999880035712277 -0.004898234952637292 -2.824615196749302e-06
-0.9999884559521237 -0.004804992667167923 -2.820608574952449e-06
-0.9999888611753761 -0.004719906458525225 -2.862988265007383e-06
-0.9999892300415524 -0.004641098167542373 -2.949918892406226e-06
-0.9999895755517187 -0.004566046253679709 -3.082559889582183e-06
-0.9999899131784623 -0.004491495375986516 -3.258636431968644e-06
-0.9999902610629207 -0.004413362347264475 -3.478957288249124e-06
-0.9999906402457487 -0.004326592990563391 -3.740482173393424e-06
-0.9999910745955528 -0.004225010400380503 -4.043206501968695e-06
-0.999991590423427 -0.004101105121311672 -4.382756133240268e-06
-0.9999922152545603 -0.003945808870423342 -4.757565770543965e-06
-0.9999929754656188 -0.003748198604864755 -5.16102922543598e-06
-0.9999938918504518 -0.003495172463744859 -5.588874518275115e-06
-0.9999949722172872 -0.003171041433819897 -6.030888177259513e-06
-0.9999961992336999 -0.002757077471631383 -6.478358840856309e-06
-0.9999975113830996 -0.002230959386667893 -6.91537607133676e-06
-0.9999987735493636 -0.001566156472218942 -7.326155642724572e-06
-0.9999997326510197 -0.0007311900000720507 -7.68584806550862e-06
-0.999999951549295 0.0003111879255174195 -7.967574313388916e-06
-0.9999987120248099 0.001604955631303032 -8.132790000575424e-06
-0.9999948739314994 0.003201881401656103 -8.13717821454493e-06
-0.9999866729755226 0.005162732670733468 -7.919325431683234e-06
-0.9999714334788672 0.00755858262801829 -7.40773068124033e-06
-0.9999451645863574 0.01047223844001915 -6.51285526816693e-06
-0.9999019991272071 0.0139997183964825 -5.121839868134733e-06
-0.9998334220651572 0.01825179750209136 -3.069088291039197e-06
-0.9997272234733826 0.02335548428470674 -1.657662456304143e-07
-0.9995660998859015 0.02945525326192575 3.763462115915672e-06
-0.9993258186531937 0.03671386785512754 8.957657429029782e-06
-0.998972846039568 0.04531283067612842 1.58657490826579e-05
-0.9984613547469744 0.05545198329167462 2.501711243135762e-05
-0.9977295792000913 0.06734749760268308 3.682207044769571e-05
-0.9966955414329715 0.08122804327663966 5.170187395480201e-05
-0.9952522508221505 0.09732909274221757 7.028100309517395e-05
-0.9932626791369824 0.1158846043116762 9.336567974222254e-05
-0.9905550232410629 0.1371157578979691 0.0001219342540104041
-0.9869190044305941 0.1612167920905666 0.0001569769136433063
-0.9821042009694818 0.1883382561089989 0.0001993085958449995
-0.9758214460933303 0.2185690808248666 0.0002495028937397732
-0.9677481672428886 0.2519194118676085 0.0003077698941869256
-0.9575380838606149 0.288306569718641 0.000373916584116584
-0.9448349058716011 0.3275466387220177 0.0004473348969712227
-0.9292891271555476 0.3693527316815685 0.0005270197754125395
-0.9105772578567988 0.4133384609378702 0.0006117054072435156
-0.8884256892981927 0.4590199388699855 0.0007002248393033445
-0.8626501355436245 0.5058004694987166 0.0007929069578671688
-0.8332465303984258 0.5529009073430524 0.0008979076870784306
-0.8006451699792497 0.5991378592673399 0.00106648087041298
-0.7665054003978173 0.6422358675294575 0.001600506065738467
-0.7365880038364291 0.6763298985268599 0.003997619655661908
-0.8709541448178424 0.4913475070171677 -0.004062631245206528
-0.8912913864586411 0.4534300449620352 -0.0009266878435901248
-0.9130009345102272 0.4079574200193516 -0.0001924437724337344
-0.9320663055591076 0.362287733726421 5.724449611088712e-06
-0.947750405369854 0.3190127949188343 7.615346721256504e-05
-0.9602590367321935 0.2791103213930275 0.0001042403008127609
-0.9700536947504802 0.2428905442457117 0.0001132120289946194
-0.9776258945700095 0.2103511296530321 0.0001118922768416095
-0.9834217274061706 0.1813331053750695 0.0001046923922047272
-0.987820183073554 0.1555997334011903 9.422318344773923e-05
-0.9911320622231139 0.1328805044769396 8.223935474809784e-05
-0.9936067276221504 0.1128967046951751 6.99497829781763e-05
-0.9954412894581595 0.09537628560254663 5.819396848094984e-05
-0.9967898880991294 0.08006195554693747 4.751131480184914e-05
-0.9977720533963087 0.06671527568020034 3.810810811669842e-05
-0.9984798370684685 0.05511818275278337 2.996256477787073e-05
-0.9989836958633599 0.04507299498902991 2.284514827511513e-05
-0.9993372420079067 0.03640159973298594 1.651996814455368e-05
-0.9995810365032264 0.02894393450379782 1.088921356868845e-05
-0.9997455721275124 0.02255639545100784 5.974116121113506e-06
-0.9998536103419879 0.01711016897221228 1.958154957697771e-06
-0.9999220011804496 0.01248965788571467 -1.08749128525679e-06
-0.9999630920321888 0.008591540123826399 -3.424172658431308e-06
-0.9999858282081561 0.005323847736938224 -5.302974690603209e-06
-0.999996608006013 0.002604598058185806 -6.739668980809343e-06
-0.9999999349398562 0.0003606392677625191 -7.72017865028529e-06
-0.9999989149840609 -0.001473078871194732 -8.327046913909286e-06
-0.9999956363173659 -0.002954195551590021 -8.652685942711439e-06
-0.9999914561964156 -0.004133697812926677 -8.750062781377872e-06
-0.9999872153217892 -0.005056591539183863 -8.659026829144576e-06
-0.9999833967500399 -0.005762478055008115 -8.421240113180166e-06
-0.9999802423502978 -0.006286083346686976 -8.074525229853683e-06
-0.9999778368673153 -0.006657756052288839 -7.649346904933843e-06
-0.9999761676170772 -0.006903922539624679 -7.171426096791123e-06
-0.9999751660175276 -0.007047503376284164 -6.661788781156339e-06
-0.9999747357284362 -0.007108295658044197 -6.138523862876938e-06
-0.999974771077223 -0.007103321583753555 -5.615397168580618e-06
-0.9999751685270478 -0.007047148589793929 -5.104458157106177e-06
-0.999975833322304 -0.006952175923688772 -4.614023820487424e-06
-0.9999766827931162 -0.006828898361862374 -4.151885730311793e-06
-0.9999776475334499 -0.006686136373891922 -3.722473842767161e-06
-0.999978671162873 -0.006531248597356747 -3.330729201911181e-06
-0.9999797093620092 -0.006370310463389071 -2.978438753992557e-06
-0.9999807284377314 -0.006208280439976601 -2.668796735278342e-06
-0.9999817038331127 -0.00604913161165179 -2.401898966922076e-06
-0.9999826185795 -0.00589597609672184 -2.180014528413154e-06
-0.9999834619772212 -0.005751153627032959 -2.002243736952929e-06
-0.999984228362973 -0.005616317459883564 -1.870511492167485e-06
-0.9999849162010361 -0.005492482792502885 -1.783403321582051e-06
-0.9999855272831677 -0.005380076316100684 -1.742879982279221e-06
-0.9999860662680506 -0.005278945604629273 -1.747314680299057e-06
-0.999986540303862 -0.005188372372523347 -1.798915509530218e-06
-0.9999869589744104 -0.005107041953578758 -1.895994614948972e-06
-0.9999873342845176 -0.00503301762146121 -2.041071140100698e-06
-0.9999876809297851 -0.004963666355262232 -2.23241034409482e-06
-0.9999880165313638 -0.004895588580927744 -2.472764781272877e-06
-0.999988362063283 -0.004824492758090894 -2.760228196056758e-06
-0.9999887420837538 -0.004745070721934349 -3.097556401404952e-06
-0.9999891849216237 -0.004650809355325775 -3.482386580954278e-06
-0.9999897222836513 -0.004533796612331079 -3.917060753840681e-06
-0.9999903882300474 -0.00438445300736121 -4.398264864822058e-06
-0.9999912166709568 -0.004191247625834099 -4.927255057527334e-06
-0.9999922368721459 -0.003940325519895765 -5.49896983866121e-06
-0.9999934654647934 -0.003615105855882263 -6.112529317080617e-06
-0.9999948934775571 -0.003195774258827347 -6.759864977290514e-06
-0.99999646554912 -0.002658727885333225 -7.436323034732686e-06
-0.999998047884728 -0.001975894899813163 -8.128816121935642e-06
-0.9999993794786426 -0.001113985828627289 -8.826270967434698e-06
-0.9999999993903735 -3.359855211554959e-05 -9.507349343607142e-06
-0.9999991395850076 0.001311764540413213 -1.015058167448215e-05
-0.999995569141703 0.002976840946823179 -1.072094011962777e-05
-0.9999873702614567 0.005025852427862515 -1.117806152710151e-05
-0.999971619641844 0.007533908642349626 -1.146452545270448e-05
-0.9999439403619343 0.01058848434844244 -1.151739246980031e-05
-0.9998978783215171 0.01429100422368404 -1.124307320314188e-05
-0.9998240446828779 0.01875845312426909 -1.050497707757958e-05
-0.9997089505421678 0.02412496885708052 -9.139023480086024e-06
-0.9995334497038734 0.03054313137058434 -7.010962812098233e-06
-0.9992706915758802 0.03818487844911204 -3.910001761685834e-06
-0.9988834733287989 0.04724200154784227 5.901937352900826e-07
-0.998320892613431 0.0579257742507284 6.998221369362736e-06
-0.9975142658081734 0.0704648086865703 1.568264469041399e-05
-0.996372329823035 0.08510099665427451 2.70456335844067e-05
-0.9947758468870221 0.1020833615747312 4.171103580904093e-05
-0.9925719573511886 0.1216589734417299 6.050730650430677e-05
-0.9895688871437111 0.1440604403196281 8.445159646628674e-05
-0.9855319054776578 0.1694899706616822 0.0001145891739625524
-0.9801817673016422 0.1981001767022893 0.0001517891657558446
-0.9731969555815538 0.2299731440000916 0.000196686318278076
-0.9642209296816271 0.265099861370296 0.0002495302552070772
-0.9528750636127149 0.3033628470280759 0.0003101420387291202
-0.9387770472813389 0.344525053818334 0.0003778745882429073
-0.9215637858854288 0.3882267180129804 0.0004516252705982341
-0.9009180391798783 0.4339889466418766 0.0005299744872962056
-0.8766013295106372 0.4812169313827014 0.0006115969254787559
-0.8485057320148884 0.529185730356094 0.0006967965020941059
-0.8167639645155894 0.5769713992922798 0.0007941457582292949
-0.7820303411673807 0.6232396262262986 0.0009559262174844763
-0.7462790209140779 0.665631601220856 0.001481350628441299
-0.71552307597695 0.6985785981610438 0.003830135224010947
-0.8403781895157079 0.5419856174616808 -0.004011115927193682
-0.8646962005224761 0.5022942126930754 -0.001002345767102358
-0.8912036228550466 0.4536033746088607 -0.0002848745214214352
-0.9148344607214655 0.4038290526882415 -7.537494483998029e-05
-0.9344428697631583 0.3561130761761498 1.118716139608098e-05
-0.9501460176306119 0.3118052954317287 5.405016740248957e-05
-0.9624599324437408 0.2714237882113049 7.505607171557027e-05
-0.9719794557063618 0.2350658009623924 8.308232632057759e-05
-0.9792597449083372 0.2026088475759928 8.298184106667218e-05
-0.9847778400352941 0.1738177197971422 7.784563059604989e-05
-0.9889267057331216 0.148404736479135 6.984550394421223e-05
-0.9920220340444601 0.1260645878372708 6.052859362945794e-05
-0.9943132815726005 0.1064945796164228 5.099654357066099e-05
-0.9959952774949363 0.08940584681294074 4.199339607554342e-05
-0.9972188281190426 0.07452924054902099 3.388317285389088e-05
-0.9980998154727074 0.06161783538382458 2.675741269717378e-05
-0.9987267178926614 0.05044742360570727 2.046699632098186e-05
-0.9991666846622332 0.04081587977047819 1.48203494311058e-05
-0.9994703802602622 0.03254164850486816 9.746403842439735e-06
-0.9996757900658823 0.02546202521907027 5.281760387882427e-06
-0.9998111939240508 0.01943132783736215 1.62495198528012e-06
-0.9998974763348705 0.0143191067420605 -1.125113336669007e-06
-0.9999499087710134 0.01000899288541655 -3.203337809339123e-06
-0.999979535150887 0.006397597659481633 -4.858275030117287e-06
-0.9999942437650396 0.00339299270079672 -6.108886403650531e-06
-0.9999995828513201 0.0009133723639233546 -6.936145041146824e-06
-0.9999993796636785 -0.001113830004462535 -7.414773540024251e-06
-0.9999962110943791 -0.00275276926052721 -7.634366012385498e-06
-0.9999917578998386 -0.004060058364335261 -7.646461706503182e-06
-0.9999870684594552 -0.005085553832438902 -7.488800503060737e-06
-0.9999827536089404 -0.005873025866387845 -7.200956778088329e-06
-0.9999791289422353 -0.006460776534986971 -6.818563613387713e-06
-0.9999763172828052 -0.006882211340079786 -6.370894037816988e-06
-0.9999743212704897 -0.007166363445427054 -5.881434514353819e-06
-0.9999730737869701 -0.007338369859558496 -5.370522598340007e-06
-0.9999724721093494 -0.007419905656848333 -4.853853951402452e-06
-0.9999724002697866 -0.007429581401486711 -4.345102063119524e-06
-0.9999727430580607 -0.007383300487297625 -3.853754974116823e-06
-0.99997339414347 -0.007294586602740534 -3.388658256725848e-06
-0.9999742602703373 -0.007174871989101109 -2.95485728420628e-06
-0.9999752627805688 -0.007033762889717124 -2.557955197533725e-06
-0.9999763375701802 -0.006879265577737707 -2.199945439362306e-06
-0.9999774340046125 -0.006717996576337815 -1.884440058040232e-06
-0.9999785134421221 -0.006555352888040378 -1.611465923478842e-06
-0.9999795474733346 -0.006395672999000636 -1.383591704565759e-06
-0.9999805162996874 -0.006242356892278986 -1.199684236405911e-06
-0.9999814071281057 -0.006097983024350027 -1.061954076945489e-06
-0.9999822129126381 -0.005964382399238007 -9.686825732172105e-07
-0.9999829311938835 -0.005842715125520023 -9.221919191078448e-07
-0.9999835633449387 -0.005733501470440172 -9.205655301414979e-07
-0.9999841139077924 -0.005636659570412312 -9.66533327124522e-07
-0.9999845903371923 -0.00555149412656205 -1.058218861743925e-06
-0.9999850027955135 -0.005476694497508772 -1.198914318140913e-06
-0.999985364333396 -0.005410278835808463 -1.386898181624958e-06
-0.9999856910613474 -0.005349548571135987 -1.626057565945739e-06
-0.9999860026515447 -0.005290982642014243 -1.914830361996609e-06
-0.9999863227194279 -0.005230140435871174 -2.257614646565952e-06
-0.999986679384975 -0.005161496447030981 -2.652899177881581e-06
-0.9999871054521704 -0.005078279211118043 -3.105380034971581e-06
-0.9999876383741259 -0.004972231479081316 -3.61335217421193e-06
-0.9999883192051529 -0.004833366918462084 -4.181431002840362e-06
-0.9999891903772681 -0.004649634986282516 -4.807283565785495e-06
-0.9999902910067946 -0.004406570316298526 -5.494824636355337e-06
-0.9999916488388555 -0.004086834178786894 -6.240364907385132e-06
-0.9999932665144572 -0.003669724253594386 -7.04611512186e-06
-0.9999950997629631 -0.003130557068558286 -7.905817224378467e-06
-0.9999970231594855 -0.002439998853326584 -8.81831932768577e-06