# OOMMF: rectangular mesh v1.0
# Segment count: 1
# Begin: Segment
# Begin: Header
# Title: 
# Desc: time = 2.2639552447318884e-10
# Desc: stepsize = 3.1948527814406856e-13
# Desc: step = 520
# meshunit: m
# valueunit: (none)
# valuemultiplier: 800000.0000000002
# xmin: 0
# ymin: 0
# zmin: 0
# xmax: 4e-07
# ymax: 1e-07
# zmax: 4e-09
# ValueRangeMaxMag: 1
# ValueRangeMinMag: 0.9999999999999996
# meshtype: rectangular
# xbase: 2e-09
# ybase: 2e-09
# zbase: 1e-09
# xstepsize: 4e-09
# ystepsize: 4e-09
# zstepsize: 2e-09
# xnodes: 100
# ynodes: 25
# znodes: 2
# End: Header
# Begin: Data Text
-0.9439295807323701 0.3301390224126061 -0.002274312832514283
-0.9507969510345199 0.3098139905544103 0.0006701941597320131
-0.9591215142051404 0.28299207678097 0.001185524370027514
-0.967171018492147 0.2541235638232238 0.001198039501179351
-0.9742296210614525 0.2255557928142852 0.001108951927403841
-0.9801014604248928 0.1984946612196154 0.000998368820539426
-0.9848325517381629 0.1735052137480049 0.000886475694709189
-0.9885648322900882 0.1507944434001895 0.0007798710767566308
-0.9914648885676536 0.130372201410225 0.0006810557843418603
-0.9936918446219375 0.1121435182809329 0.0005909648252502878
-0.9953848938218562 0.09596172872101878 0.0005096784523482327
-0.9966602410753264 0.08165888209814771 0.0004368456856406716
-0.9976122435293877 0.06906282075318056 0.0003719541306891398
-0.9983161614768 0.0580064041477081 0.0003143438879790659
-0.9988312800447189 0.04833223189732429 0.000263370558292139
-0.9992038660149509 0.03989469137345303 0.0002184971220295152
-0.9994697533129923 0.03256040682101714 0.0001792208570609571
-0.9996564994393118 0.02620805373963338 0.0001450790168183469
-0.9997851507688317 0.02072773332627841 0.0001156429789081475
-0.9998716665808342 0.01602005580216075 9.044866324072341e-05
-0.9999280504455615 0.01199538123937779 6.900043482333384e-05
-0.9999632498910099 0.00857299758869568 5.079127230985878e-05
-0.9999838667893539 0.005680220818146251 3.539022554318502e-05
-0.999994713014049 0.003251682936335641 2.240604361771095e-05
-0.9999992451159041 0.001228672469328249 1.147102749228444e-05
-0.9999999025352361 -0.0004415021827027196 2.311033682163296e-06
-0.9999983691700738 -0.001805997942425382 -5.350167209438e-06
-0.9999957749106507 -0.002906892077227467 -1.180246220270665e-05
-0.999992849831305 -0.003781532590467641 -1.724911122263118e-05
-0.9999900404238882 -0.004463023308968289 -2.181682779270336e-05
-0.9999875961618674 -0.004980649381932485 -2.557624243416131e-05
-0.9999856337531611 -0.005360174590365207 -2.855956546247277e-05
-0.9999841833689267 -0.00562423886149485 -3.080923911914715e-05
-0.9999832220279447 -0.00579263454734368 -3.236681786875642e-05
-0.9999826970908836 -0.005882551086527888 -3.334001176584881e-05
-0.9999825420026284 -0.005908853201265283 -3.382022097787649e-05
-0.999982686431144 -0.005884359931315664 -3.385484702376707e-05
-0.9999830622597367 -0.005820143616185042 -3.349517171649948e-05
-0.999983607317575 -0.005725733188042323 -3.279617424664278e-05
-0.9999842676536422 -0.005609227048482376 -3.189242874105656e-05
-0.9999849980207265 -0.005477479151933601 -3.091322814161151e-05
-0.9999857618377193 -0.00533621819914369 -2.995274374805344e-05
-0.9999865304036946 -0.005190199129105167 -2.90547837296762e-05
-0.9999872818391693 -0.005043348423366172 -2.822392077251252e-05
-0.9999880001216457 -0.004898862805562228 -2.74940627622975e-05
-0.999988674129239 -0.004759295153732792 -2.688653736098986e-05
-0.9999892973882263 -0.004626490284749765 -2.639405514016349e-05
-0.9999898669585945 -0.004501700268906246 -2.597731561240717e-05
-0.9999903825040979 -0.004385686263561315 -2.559893201383359e-05
-0.9999908457435791 -0.004278760677592734 -2.522111746089586e-05
-0.9999912602328102 -0.004180770587586086 -2.480502921424817e-05
-0.9999916315964723 -0.004090983266421147 -2.435033401320289e-05
-0.9999919670532574 -0.004008149150535115 -2.386091857741185e-05
-0.9999922753011178 -0.003930495332266716 -2.33352972348413e-05
-0.9999925663696945 -0.00385573423659544 -2.277824810753242e-05
-0.9999928520335684 -0.003780924239757358 -2.221851838917755e-05
-0.9999931462928446 -0.00370228281934928 -2.166246684367428e-05
-0.9999934650391569 -0.003615167304027762 -2.107946367928852e-05
-0.9999938258362159 -0.003513953693705582 -2.046671498273307e-05
-0.999994247238118 -0.003391916592803735 -1.981152317643057e-05
-0.9999947479188586 -0.003240952166232323 -1.907234966404349e-05
-0.9999953445415106 -0.003051322099634113 -1.813144444852912e-05
-0.9999960478665835 -0.002811399514910717 -1.685173033376281e-05
-0.9999968565951483 -0.002507303379985453 -1.515199554901953e-05
-0.9999977472433649 -0.00212257881388923 -1.293729429435975e-05
-0.9999986589352203 -0.001637689118937084 -1.010495344168424e-05
-0.9999994701198848 -0.001029425947730675 -6.493616755775171e-06
-0.9999999634718321 -0.0002702823434682819 -1.946634721975354e-06
-0.9999997739823556 0.000672325484589957 3.698710446121076e-06
-0.9999983128456211 0.001836897512165157 1.065084645743617e-05
-0.999994657313682 0.003268788866618258 1.906401593367012e-05
-0.9999873930608577 0.005021241946606919 2.91318231348914e-05
-0.9999743909897124 0.007156512569500333 4.114116989035363e-05
-0.9999524926199502 0.009747277736183694 5.549667993865248e-05
-0.9999170731817728 0.01287794532916703 7.268903378513e-05
-0.999861443123076 0.01664589626755228 9.32378117878972e-05
-0.9997760356584821 0.02116281283711813 0.000117795713134049
-0.9996473229618013 0.02655575355999482 0.0001471331535676302
-0.9994563923298688 0.03296796448367175 0.0001820680273239547
-0.9991771134480593 0.04055916607095589 0.0002236274407087589
-0.9987738277107108 0.04950521740038 0.0002730022637907208
-0.9981985187978362 0.05999672688824845 0.0003314098703156102
-0.9973874844068744 0.0722360425673888 0.0004001283901526217
-0.99625757717121 0.08643268537476158 0.000480445478047662
-0.9947022102462217 0.1027968086982453 0.0005736311854909452
-0.992587496530527 0.1215302353988287 0.0006808929180879418
-0.9897489706718007 0.1428157191145167 0.000803385283551082
-0.9859895032232692 0.166804711650829 0.0009421807759872949
-0.9810790726715723 0.1936043579898501 0.001098058844079921
-0.9747568312725389 0.2232655443710628 0.001271449649619562
-0.9667356519675971 0.2557734165261045 0.001462399859192574
-0.9567089438553688 0.2910415893398855 0.00167033579195776
-0.9443592182948646 0.3289104421161877 0.001894172232349358
-0.9293684521727006 0.3691473050694423 0.002132431965237191
-0.9114325809225914 0.411442548453049 0.002383223708352096
-0.8902885853584137 0.4553891071908517 0.002644963597613642
-0.8657785683465743 0.5004187706792024 0.002919682118255775
-0.8380221284528637 0.5456266594918107 0.003234296699342288
-0.8079520056554237 0.5892361478874868 0.00378398997007142
-0.7795920401579126 0.6262619427282892 0.005677148281658492
-0.9251300210055875 0.3796330157138261 -0.003635603694917885
-0.9364473720443081 0.3508078816490415 -0.0003867353369754416
-0.9484037108552615 0.3170651646186571 0.0002874392331812321
-0.9591298339824048 0.2829660660011423 0.0004087257287257603
-0.968185774081502 0.250232163760969 0.0004136250789748314
-0.9755684527501971 0.219695340989517 0.0003887751096155523
-0.9814478916867547 0.1917287402338137 0.0003550661606627418
-0.986052231157912 0.1664358603506277 0.0003190890936933745
-0.9896120748562186 0.143763211287369 0.0002835121033440312
-0.9923356924623317 0.1235710772609276 0.0002496595237967303
-0.9944004429462279 0.1056773934455385 0.0002181350556339818
-0.9959522016086514 0.08988423848355884 0.0001891642426301865
-0.9971083194972273 0.0759932410248777 0.0001628126204810954
-0.997961797786459 0.06381403329975491 0.0001389706318816945
-0.9985855450380094 0.05316855681880416 0.0001175029654428373
-0.99903624025217 0.04389283532560231 9.833558656609641e-05
-0.9993576382961449 0.03583718955966572 8.138559801799441e-05
-0.9995832927409247 0.02886583519348116 6.657171307871418e-05
-0.9997387645184801 0.02285606755146474 5.380655507567866e-05
-0.9998433919289684 0.01769716850211403 4.292997296987571e-05
-0.9999116903669057 0.01328948194369381 3.372335938049191e-05
-0.9999544599691914 0.009543443583971634 2.592839571716277e-05
-0.9999796566622335 0.006378549043046748 1.933356759197566e-05
-0.9999930712784911 0.003722526838480296 1.374578778782031e-05
-0.9999988590422911 0.001510573919737694 8.974878311653792e-06
-0.9999999502578799 -0.0003153730940944942 4.903933006964462e-06
-0.9999983670178523 -0.001807196632788686 1.399436164369061e-06
-0.9999954665510149 -0.00301112512706653 -1.699029176216842e-06
-0.9999921268610689 -0.003968147654804906 -4.479407408117214e-06
-0.9999888864307506 -0.004714548379375673 -6.968923204107176e-06
-0.9999860480862603 -0.005282381003309973 -9.151977111578322e-06
-0.999983755862271 -0.005699814996544882 -1.098138512697129e-05
-0.9999820502659257 -0.005991576709587987 -1.242932554153488e-05
-0.9999809080806259 -0.006179263110971912 -1.347784073564638e-05
-0.9999802703538214 -0.006281616187321985 -1.4183538385406e-05
-0.9999800611431031 -0.006314832003139739 -1.459478752098359e-05
-0.9999801995919203 -0.006292869563665329 -1.472269128779199e-05
-0.9999806071355788 -0.006227771669301474 -1.458744798403401e-05
-0.9999812119356989 -0.006129891803946032 -1.421557609428644e-05
-0.9999819515446864 -0.006008027696298006 -1.371424578164255e-05
-0.9999827735234844 -0.005869623696051498 -1.318887550823983e-05
-0.9999836354160225 -0.005720903644877873 -1.271382449683013e-05
-0.9999845038830081 -0.00556703171764799 -1.231699390628433e-05
-0.9999853534893151 -0.005412269677964741 -1.199092987411132e-05
-0.9999861655763534 -0.005260087228478753 -1.175799037680932e-05
-0.9999869271492926 -0.005113256818432459 -1.162855753775305e-05
-0.9999876305460657 -0.0049737933784899 -1.158848460188005e-05
-0.9999882721851273 -0.004843073169154822 -1.159663292994609e-05
-0.9999888515015999 -0.00472194213888162 -1.161671987650168e-05
-0.9999893703216558 -0.004610760118986163 -1.161135077731323e-05
-0.9999898326048501 -0.004509385070743932 -1.154153913052768e-05
-0.9999902446805555 -0.004417059378873841 -1.140901645051119e-05
-0.9999906147310745 -0.004332473174411061 -1.122319621607219e-05
-0.9999909526828599 -0.004253755003855068 -1.099058355646693e-05
-0.9999912700696658 -0.004178476931958131 -1.072313741831344e-05
-0.9999915805029589 -0.0041035123793713 -1.045686904764785e-05
-0.9999919002439653 -0.004024840647110513 -1.020920820066278e-05
-0.9999922478872405 -0.003937520299743377 -9.965550957593374e-06
-0.9999926441645411 -0.003835560178931647 -9.742824272390156e-06
-0.9999931112443557 -0.003711788332142082 -9.550419495282702e-06
-0.999993671816926 -0.00355756071313906 -9.374105418510132e-06
-0.9999943467854643 -0.00336248624605538 -9.130003108043427e-06
-0.9999951509730646 -0.003114153867364486 -8.720521328796651e-06
-0.9999960862739651 -0.002797743905266558 -8.111275113888042e-06
-0.9999971303224854 -0.002395682378833827 -7.261774197544846e-06
-0.999998219403436 -0.001887101574457499 -6.132264198005355e-06
-0.999999222223228 -0.001247209467750313 -4.634869550052955e-06
-0.9999999002621123 -0.0004466189380445061 -2.699959677370063e-06
-0.9999998490359928 0.0005494796791275645 -2.707141206574046e-07
-0.9999984118535341 0.001782212928907963 2.735878676869255e-06
-0.9999945548792738 0.003300026023434641 6.328269940630579e-06
-0.9999866881489375 0.005159788181716576 1.052799429361991e-05
-0.9999724119683285 0.007427991956926601 1.541853119052796e-05
-0.9999481594489871 0.01018223779414514 2.116804731359482e-05
-0.9999086998310406 0.01351263180500875 2.799820871038725e-05
-0.9998464578646228 0.01752311019631414 3.611944517400424e-05
-0.9997505900879621 0.02233283498865643 4.582728832924258e-05
-0.999605752633799 0.02807732174024978 5.749182783492961e-05
-0.9993904827049758 0.034909281976537 7.148844461228642e-05
-0.9990751159926299 0.0429988929887109 8.835190076972957e-05
-0.998619164091447 0.05253335403752052 0.0001087330109799728
-0.9979681084579491 0.06371527869387833 0.0001332734925858924
-0.9970496382438523 0.07675931488777298 0.0001626522744781142
-0.9957694234701517 0.09188697545749931 0.0001975428929454939
-0.9940066670256698 0.109319206804083 0.0002386047875407402
-0.991609886116404 0.1292662047572597 0.0002864679144484947
-0.9883934896725226 0.1519150840790434 0.0003417634118294561
-0.9841359170920742 0.1774157055357074 0.0004051155498346714
-0.9785801791875113 0.2058655032071659 0.0004769597449953103
-0.9714373840126745 0.2372953816044593 0.0005575049822391884
-0.9623935041736053 0.2716584710427094 0.0006467110526542813
-0.9511190968758892 0.3088234283936689 0.0007440653013117148
-0.9372811865823552 0.3485731730520665 0.0008487091290084841
-0.9205569244945323 0.3906072553163051 0.0009596142090476447
-0.9006509400434273 0.4345419738227436 0.001075725394290218
-0.877325055567496 0.479895106827804 0.001197211852684751
-0.8504682385553978 0.5260247179571466 0.001330904422846286
-0.8202977772505773 0.571934646730016 0.001522007744211052
-0.7880438431910887 0.6156156929783001 0.002054207259626383
-0.7588394235138141 0.6512627863646318 0.00441728624811875
-0.899650635890912 0.4365934885147173 -0.003854753899610363
-0.9156084229714645 0.402070650030015 -0.000638880386776162
-0.9323457586050644 0.3615679482818056 7.201688870985763e-05
-0.9469861639782827 0.3212742634887412 0.0002298988109154705
-0.9590680467867051 0.2831755849788342 0.0002640163417551223
-0.9687553494046756 0.2480181525195573 0.0002627177382090214
-0.9763815718281538 0.2160531518890832 0.0002485018639616246
-0.9823053879689858 0.1872860709052065 0.000228936650098525
-0.9868580699083329 0.1615893154944614 0.0002073037166909562
-0.9903253286792181 0.138764941603992 0.0001853592153391133
-0.9929441715403982 0.1185826517458302 0.0001640392610684391
-0.9949063940952328 0.1008030073954116 0.0001438348403627071
-0.996364617203685 0.08519116123505145 0.0001250279065977558
-0.9974388429856144 0.07152442175117284 0.0001076878765175623
-0.9982225732460434 0.05959602192958602 9.18270957236114e-05
-0.9987881297753508 0.04921651973522009 7.749199216264029e-05
-0.9991911003310963 0.04021368961949909 6.470177083361202e-05
-0.9994739488965896 0.03243181490992517 5.346686251764907e-05
-0.9996689122976382 0.02573060180450222 4.377710716239258e-05
-0.9998003026205891 0.01998383389195218 3.553528772494389e-05
-0.9998863169367593 0.01507820896921775 2.858185862564989e-05
-0.9999404603899961 0.0109121564960487 2.270789582869977e-05
-0.9999726592841305 0.007394617609706057 1.773781093820588e-05
-0.9999901250605312 0.004444052073271772 1.351268330669253e-05
-0.9999980248292925 0.001987521073607765 9.873967395940217e-06
-0.9999999991703404 -4.017489638097953e-05 6.730253579645168e-06
-0.9999985598142638 -0.001697160454136832 3.973814014862828e-06
-0.9999953940202334 -0.003035117156517213 1.471176705052202e-06
-0.9999915958121652 -0.004099793206008387 -8.408854316553984e-07
-0.9999878395445523 -0.00493160766767612 -2.971585570514182e-06
-0.9999845086134836 -0.005566193413977854 -4.891558688162269e-06
-0.9999817903268567 -0.006034813334223395 -6.535666979271269e-06
-0.9999797440211916 -0.006364863356594705 -7.858971100767604e-06
-0.9999783499504808 -0.00658023953293519 -8.831910460403381e-06
-0.9999775436214534 -0.006701653714025006 -9.502679129634809e-06
-0.9999772387895481 -0.006746984847236659 -9.914736125618981e-06
-0.9999773422868372 -0.006731627693868117 -1.00769006205715e-05
-0.9999777629802692 -0.00666884133919751 -1.000842665255599e-05
-0.9999784172174284 -0.006570007960667352 -9.732582199309287e-06
-0.9999792320468419 -0.006444795388608924 -9.349150368579601e-06
-0.999980146054291 -0.006301382151292381 -8.956678110619579e-06
-0.9999811093865072 -0.006146608476017846 -8.62393840242682e-06
-0.9999820828211526 -0.005986147887923708 -8.374529678259612e-06
-0.9999830363799677 -0.005824678968349538 -8.198501155066366e-06
-0.9999839480016832 -0.005666010337092887 -8.113330819767913e-06
-0.9999848022235587 -0.005513189269887958 -8.123047233737356e-06
-0.9999855897457521 -0.005368447953668413 -8.210272451966642e-06
-0.999986306026866 -0.005233324876202044 -8.335636496004664e-06
-0.9999869500562927 -0.005108781206136182 -8.467626972811971e-06
-0.9999875236342447 -0.004995247980423469 -8.571139283221746e-06
-0.9999880310592885 -0.00489261321788106 -8.606220097885552e-06
-0.999988479366796 -0.00480011043363054 -8.573647645777864e-06
-0.9999888777731748 -0.004716381870497425 -8.48516825187087e-06
-0.9999892375914637 -0.004639464569066344 -8.351937124979356e-06
-0.999989572123865 -0.004566790612521377 -8.187207182235953e-06
-0.9999898972004232 -0.00449504534761933 -8.025569490160823e-06
-0.9999902318837871 -0.004419963215631561 -7.885539346870638e-06
-0.9999905982145327 -0.00433629131347011 -7.757941917852623e-06
-0.9999910210862372 -0.004237651250425243 -7.667067963361082e-06
-0.9999915275731628 -0.00411639693158163 -7.628502471911712e-06
-0.9999921460289557 -0.003963309488396766 -7.635605118033618e-06
-0.9999929036691184 -0.003767300548435582 -7.614625527515251e-06
-0.9999938219224818 -0.003515118909437247 -7.477948781967409e-06
-0.9999949089213658 -0.003190937083471725 -7.202649529227748e-06
-0.9999961469434563 -0.002775977760661317 -6.761163305976658e-06
-0.9999974733558991 -0.002247942230784551 -6.127360196958508e-06
-0.9999987512556097 -0.001580335372105726 -5.228069363016216e-06
-0.9999997248968159 -0.0007417480756128432 -4.010570707632322e-06
-0.9999999534779644 0.0003050214714508941 -2.44342234920837e-06
-0.9999987137203666 0.001603919382515564 -4.753189471481262e-07
-0.9999948585095815 0.003206704057907725 1.867249630703127e-06
-0.9999866140829289 0.005174131244667549 4.563106227268759e-06
-0.9999712923483139 0.007577230419222493 7.643067783465624e-06
-0.9999448852947701 0.01049886884688249 1.121447611133036e-05
-0.999901500927729 0.01403524863275227 1.543667430031163e-05
-0.9998325897100827 0.0182973259089989 2.045015656924534e-05
-0.9997258945228138 0.02341228566782613 2.646445537385937e-05
-0.9995640492534591 0.02952474047817015 3.375980766550807e-05
-0.9993227369223417 0.03679763108357458 4.262249119129403e-05
-0.9989683182364931 0.04541251258026221 5.348737873518017e-05
-0.9984548452721826 0.05556903343979588 6.689595153957516e-05
-0.9977204108295388 0.06748314501930971 8.338128399936682e-05
-0.9966828653639013 0.08138338389305894 0.0001035186868397012
-0.9952350171732505 0.0975050985277589 0.0001278798313686623
-0.9932396120347864 0.1160820762511628 0.0001570293141923412
-0.9905246380153616 0.1373350093866023 0.0001915236765355981
-0.9868796696250739 0.1614573128908311 0.0002319370103180946
-0.9820542213226903 0.1885985912632996 0.0002788472391241978
-0.9757591959072069 0.2188467064892744 0.0003326579587810252
-0.9676722438704906 0.2522107721013039 0.0003935463294114312
-0.9574474458284459 0.2886073033771112 0.0004614260256352274
-0.9447290237223146 0.3278517725080673 0.0005357238096544486
-0.9291680895812143 0.3696569794568354 0.0006155021078635566
-0.9104418081132341 0.4136365850650683 0.000699667930591577
-0.8882771680254302 0.4593071445581523 0.0007872245914856433
-0.8624903186200483 0.5060727990738844 0.000878819783046181
-0.8330773625716669 0.553155621205439 0.0009832087571249456
-0.8004684198355613 0.5993738240169957 0.00115235810515002
-0.7663223457530376 0.642454052688021 0.001688959531386052
-0.7363995715059591 0.6765345071427478 0.004090443858399052
-0.8705896640711174 0.4919947373729682 -0.00384905310985644
-0.8909750108435267 0.454051741761582 -0.0007388204454210831
-0.9127395759136228 0.408541877558226 -2.902101161615341e-05
-0.9318557703661514 0.3628288869257351 0.0001484841336334435
-0.9475833109921579 0.3195087291241992 0.0002018479083891507
-0.9601276972200464 0.2795617256417728 0.0002158405069259688
-0.9699511830714052 0.2432995211944341 0.0002131781889559839
-0.9775463491902359 0.2107204173288795 0.0002022512892622796
-0.9833603485945775 0.1816655988632595 0.0001870871552671202
-0.9877731109175952 0.1558982118019416 0.0001700150946672489
-0.9910962223249952 0.133147492913049 0.0001523945302888268
-0.9935796729973739 0.1131345003762689 0.0001350223813613158
-0.9954210688465882 0.09558703718244592 0.0001184018462217032
-0.9967749389703506 0.08024780669800056 0.0001027658207775127
-0.9977611271862042 0.06687843664886052 8.824691949818063e-05
-0.9984719438511325 0.05526094208855438 7.497750362958217e-05
-0.9989780670778817 0.04519753890796287 6.303968776047863e-05
-0.9993332950737255 0.03650976035819916 5.249453677080057e-05
-0.9995783318601543 0.02903715886028762 4.337041766044982e-05
-0.9997437784333943 0.02263572876187626 3.559688521823105e-05
-0.999852472589414 0.01717650178758259 2.903749845924186e-05
-0.9999213189104526 0.01254413951751684 2.349777304415218e-05
-0.9999627131282236 0.008635508070260069 1.880453406689326e-05
-0.9999856430484727 0.00535849585345119 1.480271556443494e-05
-0.9999965390639441 0.002630918382672697 1.13400705538005e-05
-0.9999999279554944 0.0003794992103010168 8.327954966049023e-06
-0.9999989328371924 -0.00146092176432319 5.663429324376053e-06
-0.999995654209678 -0.00294814371722063 3.221845905863051e-06
-0.9999914581737506 -0.004133228597028108 9.490760319535189e-07
-0.9999871920873442 -0.005061191551687821 -1.160032376571681e-06
-0.999983344028016 -0.00577162516909159 -3.074671325707073e-06
-0.9999801598434893 -0.006299198130248758 -4.722818145122191e-06
-0.9999777270504909 -0.006674231514075877 -6.052259977624498e-06
-0.9999760348313608 -0.006923128881521219 -7.031244173689786e-06
-0.99997501610496 -0.007068741504681849 -7.708717247965981e-06
-0.9999745757093913 -0.007130769152209325 -8.131439859014306e-06
-0.9999746086082782 -0.007126153914472674 -8.313116910104002e-06
-0.9999750110112157 -0.007069461407096161 -8.278403501115012e-06
-0.9999756870856091 -0.006973175232825988 -8.052060694946102e-06
-0.9999765528845129 -0.00684789175276778 -7.729720381758118e-06
-0.999977537486583 -0.00670257170201057 -7.405984063379371e-06
-0.9999785831200988 -0.006544711609270051 -7.146374045857643e-06
-0.9999796442029885 -0.006380527490337766 -6.972029435930487e-06
-0.9999806857952755 -0.006215141928594588 -6.871494536997415e-06
-0.9999816820731984 -0.006052724264079803 -6.858525690969029e-06
-0.9999826147833407 -0.005896616233742922 -6.932837757873931e-06
-0.9999834726911339 -0.005749286436230347 -7.074902373733153e-06
-0.9999842500347728 -0.005612453105592486 -7.247766182038853e-06
-0.9999849451263504 -0.005487209263901573 -7.425911982357248e-06
-0.9999855595290713 -0.005374074422469205 -7.578370653707225e-06
-0.9999860976823808 -0.005272986175463668 -7.665320755004943e-06
-0.9999865671494821 -0.005183190284716518 -7.685496968716073e-06
-0.9999869780341241 -0.005103303208125676 -7.651517765390368e-06
-0.9999873429285682 -0.005031294588293932 -7.578100210937488e-06
-0.9999876768517224 -0.004964482728867428 -7.478604381081326e-06
-0.9999879978633377 -0.00489939534512155 -7.384130643541072e-06
-0.9999883279303268 -0.004831557684598522 -7.310886770495571e-06
-0.9999886927777634 -0.004755445723784894 -7.251721632309369e-06
-0.9999891218853112 -0.00466433904148031 -7.235318962831576e-06
-0.9999896478992233 -0.004550169378766092 -7.280922503748394e-06
-0.9999903058192916 -0.004403204842271673 -7.386227269788983e-06
-0.9999911305881629 -0.004211732304819562 -7.483287375153822e-06
-0.9999921522285413 -0.00396174522799022 -7.488525370878326e-06
-0.9999933878576116 -0.0036365074662586 -7.382667372894692e-06
-0.9999948281321973 -0.003216155754543163 -7.142792854377397e-06
-0.9999964165325591 -0.002677102260978571 -6.747189785614132e-06
-0.9999980173007385 -0.00199132043180588 -6.126101227913118e-06
-0.9999993665148154 -0.001125585459182862 -5.228931567521789e-06
-0.9999999991696988 -4.05504450218178e-05 -4.032737608958748e-06
-0.9999991416139297 0.001310253851056869 -2.499816025669319e-06
-0.9999955551906242 0.002981542980503551 -6.710604303804863e-07
-0.9999873115437966 0.00503753406060434 1.413484536528266e-06
-0.9999714734890842 0.007553290271657822 3.760481950700824e-06
-0.9999436449081781 0.01061635371269444 6.449323082846044e-06
-0.9998973441097637 0.01432833381010521 9.615939018599235e-06
-0.9998231436153049 0.01880641678410012 1.337728176982056e-05
-0.9997075018558107 0.02418492117930999 1.790989390245788e-05
-0.9995312023997345 0.03061657849566448 2.346399972160009e-05
-0.9992673002138229 0.03827351310083863 3.030341553551973e-05
-0.9988784734334659 0.04734758497424098 3.883729865680413e-05
-0.9983136840314062 0.05804985630654479 4.958256467215418e-05
-0.9975040881820153 0.07060871110619278 6.305622884845532e-05
-0.9963582273626225 0.08526591578531022 7.98254632666876e-05
-0.9947566336722676 0.1022703753433354 0.0001004596973040133
-0.9925461900416244 0.1218689660058221 0.0001255329709681277
-0.9895348812820906 0.1442937784680099 0.0001556324623458946
-0.9854878048441744 0.1697461336212001 0.0001913741452827085
-0.9801256374413866 0.1983776206163547 0.0002333853227949889
-0.9731269361796929 0.2302691609512838 0.0002821281888450302
-0.9641354115923436 0.2654106139394246 0.0003378194183232656
-0.9527728564720405 0.3036835913781391 0.0004003720565552074
-0.9386575614069269 0.344850347676166 0.000469170788000229
-0.9214271633374255 0.3885507529646581 0.0005431708222930067
-0.9007652013422425 0.4343059592809793 0.0006211150435573839
-0.8764339114980799 0.4815216570118087 0.0007018580892412528
-0.8483258822849368 0.5294738705316109 0.0007860469184397831
-0.8165740194154488 0.5772400638567541 0.0008828897711811089
-0.7818324247065113 0.6234877438497111 0.001045440927979502
-0.7460747136557689 0.6658603794563388 0.001573757834640865
-0.7153135864786172 0.6987925657401605 0.003927221076161633
-0.8399783373144687 0.5426066248211328 -0.003800466108097985
-0.8643429706148916 0.5029021416765191 -0.0008155033993247388
-0.8909060556061962 0.4541876105718733 -0.0001203628730286018
-0.914590608338023 0.4043810260334471 7.017137007568616e-05
-0.9342466522312036 0.3566274988874552 0.0001408263680500374
-0.9499901556550064 0.3122798026879525 0.0001702696385393098
-0.9623373277075262 0.2718581161610419 0.0001799391744151118
-0.9718837786594745 0.2354610136633684 0.000178390582757916
-0.9791856194695826 0.2029667304274873 0.0001701867942409557
-0.9847208281389883 0.1741403617735119 0.000158210793987241
-0.9888832066072848 0.1486942597061725 0.0001442931988572166
-0.9919891448859366 0.126323076405711 0.0001295988605836325
-0.9942886683356653 0.1067240873263903 0.0001149070825654744
-0.9959770612408506 0.08960850043489008 0.0001006570847062336
-0.9972055021861171 0.07470728757928433 8.713369076334794e-05
-0.9980901820285515 0.06177364305297036 7.458000125824113e-05
-0.998719843831387 0.05058329317556603 6.315792975023438e-05
-0.9991618598860325 0.04093378728458572 5.298702155480352e-05
-0.9994670680653764 0.03264319078411838 4.413877280427091e-05
-0.999673585769121 0.02554839677872306 3.657245658266771e-05
-0.999809787284739 0.0195035468370344 3.017317435036125e-05
-0.9998966247216313 0.01437843027790523 2.475949341499017e-05
-0.9999494282325396 0.01005686685820507 2.015969087839088e-05
-0.9999792928822937 0.006435335543894395 1.621927278322759e-05
-0.9999941459016067 0.003421695328569892 1.279040442015361e-05
-0.999999563775954 0.0009339979194568495 9.787131805802314e-06
-0.9999993944819936 -0.001100447676909372 7.110271312378486e-06
-0.9999962298223286 -0.002745964234755347 4.642104891793971e-06
-0.9999917611879342 -0.004059254955923915 2.335751886511945e-06
-0.9999870448731896 -0.005090195060015612 1.895276838734433e-07
-0.9999826976637251 -0.005882547923107386 -1.763906125153884e-06
-0.9999790398492715 -0.006474554057726463 -3.447050009774701e-06
-0.9999761975451652 -0.006899588397055943 -4.802414787510564e-06
-0.9999741756072894 -0.007186660205231186 -5.797931469529684e-06
-0.9999729086696214 -0.007360834514586202 -6.485766700065015e-06
-0.9999722953489941 -0.007443687701893137 -6.918134490002156e-06
-0.9999722203958712 -0.007453749789663333 -7.115032816779633e-06
-0.9999725683373684 -0.007406923939855595 -7.107458043493351e-06
-0.9999732316989257 -0.00731681882305209 -6.922178463741625e-06
-0.9999741158014407 -0.007194976226081428 -6.650786545336503e-06
-0.999975140303086 -0.007051151329231412 -6.383978651951209e-06
-0.9999762394871465 -0.006893505850226296 -6.183617960334219e-06
-0.9999773613114118 -0.006728805826324616 -6.067710885703128e-06
-0.9999784657310334 -0.006562624318228238 -6.022101306809519e-06
-0.9999795229921929 -0.006399496825123351 -6.05729947993349e-06
-0.9999805118577563 -0.006243065482031602 -6.171429600791045e-06
-0.9999814189371009 -0.006096043002967341 -6.344131224099753e-06
-0.9999822370173777 -0.005960336143113623 -6.540787829165692e-06
-0.9999829634987284 -0.00583717969977292 -6.741869354541169e-06
-0.9999835994612014 -0.005727194837152122 -6.922147593393332e-06
-0.9999841492248178 -0.005630386265423989 -7.044069540256441e-06
-0.9999846206185307 -0.005546032450191273 -7.104514475224343e-06
-0.9999850243842395 -0.005472746715354817 -7.116235654159339e-06
-0.9999853741545797 -0.005408458797767207 -7.096305604724146e-06
-0.9999856864476279 -0.005350406531388379 -7.057953540478416e-06
-0.9999859813678742 -0.005294999370152214 -7.028437910978044e-06
-0.9999862836543563 -0.005237600011430234 -7.019200198597423e-06
-0.9999866226760666 -0.005172467458201028 -7.021933477634439e-06
-0.9999870325925152 -0.00509260217054061 -7.06739735557935e-06
-0.9999875519032142 -0.004989587867129542 -7.17859397913311e-06
-0.9999882227959214 -0.00485326851899594 -7.357793895778804e-06
-0.9999890888630347 -0.004671412847131358 -7.542481875849619e-06
-0.9999901901939727 -0.00442938565317448 -7.652272285388856e-06
-0.9999915551500087 -0.004109692183713958 -7.669532643551556e-06
-0.9999931861326246 -0.003691562127638988 -7.57490968250402e-06
-0.9999950376568467 -0.003150334529879932 -7.350579502900051e-06
-0.9999969822502953 -0.002456713717549027 -6.929075071753168e-06
-0.9999987581310457 -0.001575974998179578 -6.258710928965808e-06