# OOMMF: rectangular mesh v1.0
# Segment count: 1
# Begin: Segment
# Begin: Header
# Title: 
# Desc: time = 2.20178574241811e-10
# Desc: stepsize = 3.0691291343783305e-13
# Desc: step = 500
# meshunit: m
# valueunit: (none)
# valuemultiplier: 800000.0000000002
# xmin: 0
# ymin: 0
# zmin: 0
# xmax: 4e-07
# ymax: 1e-07
# zmax: 4e-09
# ValueRangeMaxMag: 1
# ValueRangeMinMag: 0.9999999999999996
# meshtype: rectangular
# xbase: 2e-09
# ybase: 2e-09
# zbase: 1e-09
# xstepsize: 4e-09
# ystepsize: 4e-09
# zstepsize: 2e-09
# xnodes: 100
# ynodes: 25
# znodes: 2
# End: Header
# Begin: Data Text
-0.9439197363722946 0.3301674991016029 -0.00222571872673206
-0.9507886823692726 0.3098392709739375 0.0007124891864837981
-0.9591150420183226 0.2830138583767576 0.001221532190062813
-0.9671661061370477 0.2541421129633412 0.001228640805483472
-0.974225932796864 0.2255715929457202 0.001135042734862821
-0.9800986889126142 0.1985082320121954 0.001020693473378325
-0.9848304575945296 0.173517000884052 0.0009056480291619885
-0.9885632517287354 0.150804718294216 0.0007964117720347102
-0.9914637149912936 0.1303810503630085 0.0006953861525349937
-0.9936910003746894 0.112150932462556 0.0006034253294817608
-0.9953843128195925 0.09596769678614951 0.0005205441661328148
-0.9966598610944871 0.08166346841738312 0.0004463285338428529
-0.9976120039832233 0.06906623579769726 0.0003802384956377082
-0.9983160105102612 0.05800896231235016 0.000321636938878079
-0.9988311817389474 0.04833422757032946 0.0002698724829339303
-0.9992037986662741 0.03989634557475671 0.0002243672591810823
-0.9994697063261692 0.03256181931165966 0.0001845518770296292
-0.9996564693858465 0.02620917308771857 0.0001498702160070642
-0.9997851353069891 0.02072845556562982 0.000119787514368858
-0.9998716618983743 0.01602032862450028 9.382614506237384e-05
-0.9999280527193459 0.01199517657418826 7.158107998768051e-05
-0.9999632556034426 0.008572320124461059 5.263694344967693e-05
-0.9999838731154421 0.00567909913160203 3.663457688874661e-05
-0.9999947180022276 0.003250142713068771 2.323768044029711e-05
-0.9999992474785044 0.001226742792183763 1.202273038346107e-05
-0.9999999015597492 -0.0004437046136565187 2.589807776368709e-06
-0.9999983651689511 -0.001808212008634881 -5.362489755180058e-06
-0.9999957694021497 -0.002908785211503634 -1.209939340664395e-05
-0.9999928449240792 -0.003782827550244994 -1.778682676267369e-05
-0.9999900381524195 -0.004463528586910437 -2.254942431043363e-05
-0.9999875979181118 -0.004980292056021593 -2.647642755018166e-05
-0.9999856399385973 -0.005359014663775179 -2.963827554750051e-05
-0.999984193868641 -0.005622364274056161 -3.213803780916834e-05
-0.9999832364758642 -0.005790130487661055 -3.400281556147105e-05
-0.9999827149067307 -0.00587951076258213 -3.522720910367402e-05
-0.9999825619051647 -0.005905472225869138 -3.582419386908509e-05
-0.9999827065327783 -0.00588093108632159 -3.584602172606105e-05
-0.9999830808370658 -0.005816939597882894 -3.540231946087972e-05
-0.9999836232561632 -0.00572293820829691 -3.460837272796724e-05
-0.9999842806728007 -0.005606895868053597 -3.355630515680312e-05
-0.9999850082987009 -0.005475594321297275 -3.232144377089296e-05
-0.9999857696680544 -0.005334744845589862 -3.096482730452931e-05
-0.9999865360599073 -0.005189106224370237 -2.958884043632944e-05
-0.9999872856658268 -0.005042589207733863 -2.829794295153324e-05
-0.9999880028037189 -0.004898317296168308 -2.713475833980924e-05
-0.9999886766324316 -0.004758773473928137 -2.611400552822963e-05
-0.9999893004371124 -0.004625837832163452 -2.521199060463423e-05
-0.9999898706505096 -0.004500888651721322 -2.444834931620741e-05
-0.9999903865698565 -0.00438476904726198 -2.383842648300174e-05
-0.9999908501111712 -0.004277750449702029 -2.334580912056505e-05
-0.9999912651089329 -0.004179614776093264 -2.293815545387929e-05
-0.9999916369377196 -0.004089687555204744 -2.259027860627877e-05
-0.999991972412411 -0.004006820698023792 -2.233000346576466e-05
-0.9999922802670664 -0.003929238623365253 -2.213849343323075e-05
-0.9999925709946226 -0.003854539178099548 -2.198383479771147e-05
-0.9999928567017614 -0.003779691408867262 -2.18701552398811e-05
-0.9999931512658849 -0.003700938591036367 -2.179151635390513e-05
-0.9999934703610603 -0.003613690987777157 -2.174137765360109e-05
-0.9999938315120918 -0.003512331077638732 -2.163716058309602e-05
-0.9999942533517362 -0.00339010414932064 -2.138598823803846e-05
-0.9999947545895395 -0.003238881892368639 -2.091634406658167e-05
-0.9999953516817134 -0.003048968483739413 -2.015318467420105e-05
-0.9999960550228031 -0.002808839161959442 -1.901033565629323e-05
-0.9999968630798681 -0.002504701519289123 -1.734134755812618e-05
-0.9999977524067956 -0.002120131217065238 -1.499930555384877e-05
-0.9999986624446097 -0.001635532932525922 -1.187509035227009e-05
-0.9999994719196995 -0.001027666461783504 -7.871809984546982e-06
-0.999999963810082 -0.000269019312737187 -2.905776176169872e-06
-0.9999997735248118 0.0006730084611034321 3.152120439405152e-06
-0.9999983128190411 0.001836912989771616 1.047563517286392e-05
-0.9999946595666915 0.003268098552981455 1.923392715259425e-05
-0.9999873997879736 0.005019898796041417 2.968778234191519e-05
-0.9999744036002525 0.007154744600208251 4.211917376288056e-05
-0.9999525107653404 0.009745408283993244 5.684601545413258e-05
-0.9999170954015931 0.01287621059099895 7.432669064399424e-05
-0.9998614670976007 0.01664444523570084 9.51642204960129e-05
-0.9997760576000567 0.02116176308672855 0.0001201363746641118
-0.9996473377576052 0.0265551802784514 0.0001500483621074676
-0.9994563936675771 0.03296790332686157 0.0001857612212920295
-0.9991770927571024 0.0405596498065531 0.0002282915556057927
-0.9987737750983037 0.04950624717411636 0.0002786873125722827
-0.9981984284686132 0.05999819262574195 0.000338059809451217
-0.9973873585492626 0.07223773802052513 0.0004076908169338274
-0.9962574184829549 0.08643446708569108 0.0004888939459666037
-0.9947020166642516 0.1027986293580835 0.0005829632663380789
-0.992587253647035 0.1215321612191097 0.0006911489336277115
-0.9897486369100345 0.1428179685706846 0.0008146091526493182
-0.9859890137762128 0.1668075355828439 0.0009543507685062944
-0.9810783622442982 0.1936078835950457 0.001111101207075337
-0.9747558462421896 0.2232697655539792 0.001285303910870402
-0.9667343654185052 0.2557781953376592 0.001476993124538184
-0.9567073687695337 0.2910466789147984 0.001685596256953984
-0.944357385032584 0.3289156138677078 0.001910049331369975
-0.9293663772092011 0.3691524338049552 0.002148843624508636
-0.9114302579914577 0.4114475964931572 0.002400032839015048
-0.8902859763837181 0.4553941082088534 0.002662041162738876
-0.865775612248775 0.5004237839424857 0.002936954194951032
-0.8380187903617025 0.5456316823689755 0.003251798872873391
-0.8079483120671406 0.5892410970354247 0.003801919560810745
-0.7795880968642162 0.6262666824761512 0.005695757012429261
-0.9251185263314897 0.3796614696315171 -0.003588971369178739
-0.9364377444299967 0.3508336230007523 -0.0003460910654560035
-0.9483961736234787 0.3170876757159078 0.0003221264149190179
-0.9591241013742116 0.282985452011822 0.0004383067140261185
-0.9681814592472829 0.2502488147775112 0.0004389444749735479
-0.9755652036032004 0.2197097289381611 0.0004105223077055108
-0.981445432915911 0.1917412904838325 0.0003738075629380059
-0.9860503727011596 0.1664468385516716 0.0003353088987815652
-0.9896106919712206 0.1437727017498351 0.0002976034182868518
-0.992334694410227 0.1235790664135412 0.0002619429677158021
-0.99439975281022 0.1056838645602818 0.0002288724032187099
-0.9959517471942144 0.08988925317452205 0.0001985560824943574
-0.9971080307103471 0.07599701204879249 0.0001710338818550366
-0.9979616143519522 0.06381688569093867 0.0001462215935202236
-0.9985854248142473 0.05317080004870003 0.0001239787475756065
-0.9990361576144907 0.04389470267067781 0.0001041936991695772
-0.9993575804660826 0.03583878966785349 8.671862528873144e-05
-0.9995832552640387 0.02886712144942784 7.137906676655466e-05
-0.9997387444557324 0.02285693487762095 5.798340639017297e-05
-0.9998433848352256 0.0176975606299323 4.635718572916867e-05
-0.9999116918136651 0.01328936611367611 3.636798215632066e-05
-0.9999544658626709 0.00954282063908392 2.784870326490901e-05
-0.9999796636719392 0.006377445861059727 2.066020350114305e-05
-0.9999930770655678 0.003720968408928432 1.466414046710542e-05
-0.9999988620278614 0.001508592215279322 9.618198102565866e-06
-0.9999999495343057 -0.000317653080966738 5.282593806586071e-06
-0.9999983628464355 -0.001809503304505153 1.496504232875884e-06
-0.999995460573411 -0.003013109528858401 -1.880971369937523e-06
-0.9999921214515161 -0.003969510152488344 -4.90358061442175e-06
-0.999988883925937 -0.004715078674271808 -7.59300490859879e-06
-0.9999860501028119 -0.005281997804239463 -9.948493086058465e-06
-0.999983762879556 -0.005698581764644002 -1.196308766092841e-05
-0.9999820621419968 -0.005989591582905301 -1.36714700952771e-05
-0.9999809243774267 -0.006176621648331347 -1.504260500374088e-05
-0.9999802903912959 -0.006278421161988955 -1.602034992308807e-05
-0.9999800834874472 -0.006311287810032319 -1.657157097685175e-05
-0.9999802221666959 -0.006289276292464663 -1.670814504770963e-05
-0.9999806280349258 -0.006224410211713821 -1.650427610247123e-05
-0.9999812299092766 -0.006126954516760267 -1.604616716453638e-05
-0.9999819662588195 -0.006005574070283437 -1.540229784783207e-05
-0.999982785170563 -0.005867635689668342 -1.462657784276616e-05
-0.9999836443407522 -0.005719341016347774 -1.375959734012555e-05
-0.9999845104044932 -0.005565858876986504 -1.28859212572918e-05
-0.9999853579861342 -0.0054114385336258 -1.209707410597844e-05
-0.9999861687834682 -0.005259478225602227 -1.142606050564022e-05
-0.9999869301130477 -0.005112678818307998 -1.088039738853685e-05
-0.9999876340690257 -0.004973087596091761 -1.043040865230706e-05
-0.9999882763897957 -0.004842208290094836 -1.009160402574998e-05
-0.9999888561041967 -0.004720971281859987 -9.878021668110151e-06
-0.9999893752478919 -0.00460969588907832 -9.754003686310699e-06
-0.9999898380918534 -0.004508172481467326 -9.690503360558442e-06
-0.999990250698119 -0.004415700994942799 -9.666252999065949e-06
-0.9999906208002757 -0.004331075746794467 -9.713610317402792e-06
-0.9999909583553107 -0.004252424158886375 -9.818348037069311e-06
-0.9999912754024687 -0.004177202396221703 -9.95414884532676e-06
-0.9999915859253832 -0.004102191575961475 -1.01346177319762e-05
-0.9999919060489196 -0.004023397718521549 -1.036564427055395e-05
-0.9999922541185076 -0.003935935649785257 -1.065581321930012e-05
-0.999992650818157 -0.003833821849617515 -1.094078721755246e-05
-0.9999931184064315 -0.003709853833602306 -1.11495981276373e-05
-0.9999936796233486 -0.003555360325249739 -1.123891915444835e-05
-0.9999943551451796 -0.003359993015230639 -1.116751282813933e-05
-0.9999951593762494 -0.003111447492668894 -1.088895969184848e-05
-0.9999960939342882 -0.00279499732326139 -1.030189831789236e-05
-0.9999971364865429 -0.002393100916999089 -9.312080826364029e-06
-0.9999982236755207 -0.001884829911194471 -7.874548867699942e-06
-0.9999992245236474 -0.00124535797062032 -5.968984669565841e-06
-0.9999999008503827 -0.0004452934326002416 -3.603216468802419e-06
-0.999999848646322 0.0005501879343720996 -7.54985261582106e-07
-0.9999984118578288 0.001782210683453469 2.626749826615609e-06
-0.9999945573505182 0.003299276623560238 6.565205157278362e-06
-0.9999866955420236 0.005158353872458332 1.114765380442768e-05
-0.999972425901545 0.007426113777919604 1.645405866815489e-05
-0.9999481795920803 0.01018025643786734 2.256863435604995e-05
-0.9999087245165873 0.01351080140687277 2.968088809543563e-05
-0.9998464844155491 0.0175215910125147 3.808223643527223e-05
-0.9997506142406181 0.02233174876176293 4.819490044286961e-05
-0.9996057686198994 0.02807674643637077 6.042654453488842e-05
-0.9993904832376596 0.03490925894837936 7.519090568091918e-05
-0.9990750912560094 0.04299945792261288 9.300622247121255e-05
-0.998619103032425 0.05253450271672192 0.0001143810351095379
-0.9979680045467565 0.06371689211945958 0.0001398556459840342
-0.997049493598591 0.076761177528184 0.0001701154894508707
-0.9957692409969823 0.09188893461930099 0.0002058611749629275
-0.9940064444158995 0.1093212105054739 0.0002477766708406286
-0.9916096073975154 0.1292683201149241 0.0002965326463694065
-0.9883931094306194 0.1519175328585414 0.0003527608894311562
-0.9841353646535107 0.1774187423394757 0.0004170191601852261
-0.978579383303805 0.205869256510292 0.0004896903547751731
-0.9714362870405683 0.2372998402533131 0.0005709961350570074
-0.9623920784243938 0.2716634878213694 0.0006608863018166557
-0.9511173576769912 0.3088287487769462 0.0007588507123695753
-0.937279167710535 0.3485785638775206 0.0008640491487445859
-0.9205546452687894 0.3906125876450052 0.0009754216143850648
-0.9006483952798411 0.4345472079247569 0.001091862924032362
-0.8773222055525723 0.4799002760266007 0.001213554268213347
-0.8504650197516134 0.5260298800682029 0.001347387961709627
-0.8202941513851614 0.5719398024331293 0.001538699467223579
-0.7880398262737511 0.6156207774118422 0.002071382455011504
-0.758835103595749 0.6512676972350323 0.004435322875123893
-0.8996374114107538 0.4366211303842951 -0.003810051456089225
-0.915597234630795 0.4020961879035288 -0.0005996748207413731
-0.932336907970065 0.3615907615748052 0.0001057382161626124
-0.9469793729489894 0.3212942579397733 0.0002588900709176149
-0.9590628982684044 0.283192997138934 0.0002890267724732266
-0.9687514504054022 0.2480333575950819 0.0002843546018082948
-0.9763786087741374 0.2160665196100595 0.0002672674227879381
-0.982303140445295 0.187297837986843 0.0002452687597513744
-0.9868563907936965 0.1615995509287119 0.0002215610003846638
-0.9903241102480452 0.1387736196867407 0.0001978394737446229
-0.9929433224021491 0.118589746079368 0.0001749908928227943
-0.9949058287565427 0.1008085728495672 0.0001534480045472672
-0.9963642530614373 0.08519540719567439 0.000133469424068051
-0.9974386085768474 0.07152767897949332 0.0001151524585775328
-0.9982224178850766 0.05959861347594088 9.850592242714735e-05
-0.998788022222975 0.04921869242964107 8.354300671478149e-05
-0.9991910244947781 0.04021556462548488 7.022057155522664e-05
-0.999473898655712 0.03243335457369242 5.845552760167902e-05
-0.9996688837977377 0.02573170125844893 4.813450902191569e-05
-0.9998002905417122 0.01998443145364813 3.914309278861584e-05
-0.9998863160089172 0.01507826488974341 3.140112084709817e-05
-0.9999404656974449 0.01091166559775936 2.479231885244905e-05
-0.999972666754592 0.007393603613810014 1.921747048022441e-05
-0.9999901317710229 0.004442538483686602 1.457369471037234e-05
-0.9999980287493284 0.001985543734266481 1.065533304095064e-05
-0.9999999990713848 -4.248113743031297e-05 7.251399495390654e-06
-0.9999985558144473 -0.001699514986981669 4.222332609686402e-06
-0.9999953878302995 -0.003037155913035625 1.44508916764656e-06
-0.9999915900791899 -0.004101191247676374 -1.114756925544973e-06
-0.999987836960429 -0.00493213131009619 -3.455713117267939e-06
-0.9999845110742169 -0.005565750692340177 -5.557841609524571e-06
-0.9999817984090982 -0.006033472942532778 -7.399822724124168e-06
-0.9999797575341417 -0.006362738475682292 -9.002728909090699e-06
-0.9999783683444002 -0.006577441496983515 -1.032589315492965e-05
-0.9999775660829522 -0.006698298517293423 -1.130434273173439e-05
-0.9999772637238395 -0.006743285096963409 -1.189466338063869e-05
-0.9999773674455841 -0.006727886013195285 -1.209925894506692e-05
-0.9999777862931781 -0.006665341445572854 -1.198369363554574e-05
-0.999978437303278 -0.006566947025749488 -1.16299038721284e-05
-0.9999792485189257 -0.006442236273353962 -1.110507105925186e-05
-0.9999801591335157 -0.006299303920595818 -1.046059075887678e-05
-0.9999811194998327 -0.006144961282505345 -9.731247427302526e-06
-0.999982090354429 -0.005984888426504423 -8.994906645769378e-06
-0.9999830417405882 -0.0058237583809794 -8.340325989661319e-06
-0.9999839519437718 -0.005665315003195337 -7.799388837007031e-06
-0.9999848058444307 -0.005512533521505977 -7.379046945721019e-06
-0.9999855939176427 -0.005367672447184369 -7.048310767527325e-06
-0.9999863108985055 -0.005232396111486301 -6.821240685661518e-06
-0.9999869553273865 -0.005107751952095954 -6.712620003113744e-06
-0.9999875292223033 -0.004994132069855459 -6.68893244826626e-06
-0.9999880372397909 -0.004891352786316103 -6.725308968751387e-06
-0.9999884861447997 -0.004798701026983466 -6.803294225591693e-06
-0.9999888846576597 -0.004714924467760523 -6.956465520399914e-06
-0.9999892441049866 -0.004638062410478056 -7.170319810949972e-06
-0.9999895783272158 -0.004565433378838376 -7.417557249378117e-06
-0.9999899035697237 -0.004493628723966519 -7.713964871003111e-06
-0.999990238742706 -0.004418410824766831 -8.067768623373298e-06
-0.9999906055972633 -0.004334587076260971 -8.490966074221381e-06
-0.9999910289679645 -0.004235788471282781 -8.922862722861829e-06
-0.9999915360380727 -0.004114336617151615 -9.296035421952093e-06
-0.9999921552417841 -0.003960980083830773 -9.574292055006927e-06
-0.9999929135527468 -0.003764671261389275 -9.725317238662966e-06
-0.9999938319160138 -0.00351226929211603 -9.713194298478162e-06
-0.9999949181272509 -0.003188044924645024 -9.446186908318999e-06
-0.999996154478108 -0.002773256360894752 -8.840373975471393e-06
-0.9999974787343132 -0.002245542948858095 -7.866455226300422e-06
-0.999998754347312 -0.001578372977885425 -6.524313481391128e-06
-0.9999997259400346 -0.0007403352987360709 -4.847757024703758e-06
-0.999999953244205 0.0003057834254690637 -2.843243384340406e-06
-0.999998713704611 0.001603929202049909 -4.875431769246415e-07
-0.9999948610026144 0.003205926306789366 2.208343582478534e-06
-0.9999866218047024 0.005172637978492636 5.287905019468657e-06
-0.9999713071587267 0.007575274394963391 8.781113475726394e-06
-0.9999449069125873 0.01049680798513307 1.271611767951095e-05
-0.9999015274414342 0.01403335753615085 1.72206018368899e-05
-0.9998326179902823 0.01829577808944339 2.251220592960838e-05
-0.9997259197037737 0.0234112074754072 2.893071916571058e-05
-0.9995640647036315 0.02952421377232187 3.68005508927164e-05
-0.9993227339979047 0.03679770588292146 4.644035382885439e-05
-0.9989682854034375 0.04541322895339514 5.825926596757297e-05
-0.9984547699141338 0.05557038021184074 7.265552324857195e-05
-0.9977202852609331 0.06748499290449217 9.006399247931787e-05
-0.9966826911942216 0.08138550692707533 0.0001110678481139834
-0.9952347972818424 0.0975073315733522 0.0001362674351804382
-0.9932393436221461 0.1160843600158855 0.000166255075858621
-0.9905243031690913 0.1373374099719805 0.0002016273150755849
-0.9868792188768226 0.1614600517829334 0.0002429553961448012
-0.9820535780378785 0.188601922915706 0.0002907498887397968
-0.9757582827066558 0.2188507584077979 0.0003453602312827328
-0.9676709989753263 0.2522155271091939 0.0004069731258993452
-0.9574458407329332 0.288612605351255 0.0004754950755816698
-0.9447270759164618 0.3278573609614132 0.0005503578370289578
-0.9291658359970313 0.3696626184931681 0.0006306383367476577
-0.9104392710915267 0.4136421425931758 0.0007152099383243613
-0.8882743437749754 0.459312579118304 0.0008030285350089341
-0.8624871648933192 0.5060781459452778 0.0008947574386536821
-0.8330738115260394 0.5531609405051519 0.0009992241650827228
-0.800464429801358 0.5993791213581555 0.001168547265601123
-0.7663179296216177 0.6424592761408515 0.001705649732461431
-0.7363948245921916 0.6765395673691087 0.004108052805649966
-0.8705752668626635 0.492020545947052 -0.003806191399100204
-0.8909626405596099 0.4540760749590293 -0.0007009114414164934
-0.912729620502756 0.4085641196204846 3.953889743425905e-06
-0.9318480172517332 0.3628487858000372 0.0001771650415864845
-0.9475773605227976 0.3195263594116922 0.0002268606567946959
-0.9601231454187652 0.2795773401692479 0.0002376869042785976
-0.9699476958956224 0.2433134054522771 0.0002322799786749875
-0.977543686507803 0.2107327525857492 0.0002189894228643472
-0.9833583470053395 0.1816764174561074 0.000201780177064467
-0.9877716488204983 0.1559074607611618 0.000182935619579346
-0.9910951950780547 0.1331551255871733 0.0001637774591570459
-0.9935789818605365 0.1131405575629576 0.0001450493787287688
-0.9954206181644253 0.09559171901745878 0.0001272338008100615
-0.9967746453178318 0.08025144373051124 0.0001105923988015976
-0.9977609304555908 0.06688136199997918 9.52545083491965e-05
-0.9984718064073713 0.0552634164353752 8.132336954092574e-05
-0.9989779690433254 0.04519969722776879 6.882289539660033e-05
-0.9993332285132841 0.03651157429358332 5.772192106157887e-05
-0.9995782920448049 0.02903852224084714 4.794640784271351e-05
-0.9997437592217264 0.02263657095144866 3.940520885771368e-05
-0.9998524678265602 0.0171767737050691 3.203470080190526e-05
-0.9999213227352992 0.01254383023604162 2.573516047106175e-05
-0.9999627205966722 0.008634639547045748 2.041552900347389e-05
-0.9999856505536152 0.005357091704122541 1.597924209753015e-05
-0.9999965440476747 0.002629019419376521 1.223108362371027e-05
-0.9999999288010825 0.0003772498438465964 8.965758215760328e-06
-0.9999989294546033 -0.001463233790675115 6.043208509401462e-06
-0.9999956483124574 -0.002950143218095315 3.337762662913868e-06
-0.9999914526289017 -0.004134569925818282 8.167726711089233e-07
-0.9999871899142435 -0.005061620801193313 -1.509787205167757e-06
-0.9999833473878956 -0.005771042698502577 -3.615372555879214e-06
-0.999980169396175 -0.006297680876692188 -5.474719205837638e-06
-0.9999777425334229 -0.006671910317177591 -7.104816112076237e-06
-0.9999760555514694 -0.00692013381934493 -8.46442688524334e-06
-0.9999750410923735 -0.007065203626647522 -9.487857960348444e-06
-0.9999746032168699 -0.00712690807144641 -1.012939740607088e-05
-0.999974636250164 -0.007122271297939363 -1.038798083146907e-05
-0.9999750365980613 -0.007065838527521108 -1.032513512129724e-05
-0.9999757091418833 -0.006970009018523811 -1.002341028573799e-05
-0.9999765709868871 -0.006845245506611715 -9.553043586382692e-06
-0.9999775518988401 -0.00670041923928086 -8.967710707086505e-06
-0.9999785943683182 -0.006542991385428375 -8.300162611277556e-06
-0.9999796527523187 -0.006379186722171643 -7.623328828602599e-06
-0.9999806920787674 -0.006214130697053949 -7.024870400680061e-06
-0.9999816868340476 -0.00605193802018044 -6.536971817588267e-06
-0.999982619133758 -0.005895879268613312 -6.167566177016072e-06
-0.9999834775512052 -0.005748442393807575 -5.885829127657657e-06
-0.9999842555731375 -0.005611468016120102 -5.704510382607168e-06
-0.9999849510246381 -0.005486136386739416 -5.638911205148978e-06
-0.9999855656920423 -0.005372929885690383 -5.657655558706549e-06
-0.9999861044326992 -0.005271708315330003 -5.740450184896727e-06
-0.9999865745536949 -0.005181763975116177 -5.871413079532203e-06
-0.9999869856196146 -0.005101818732522546 -6.084139664422219e-06
-0.9999873502084234 -0.005029849166870526 -6.363467610292165e-06
-0.9999876838932558 -0.00496306529935229 -6.681012301895475e-06
-0.9999880051887329 -0.004897900458543604 -7.05382423239137e-06
-0.9999883358936008 -0.004829908968325629 -7.490264964035234e-06
-0.9999887014007262 -0.004753630911413505 -8.002930075258482e-06
-0.9999891311145638 -0.004662357767241666 -8.531664036382687e-06
-0.9999896578107732 -0.004547987504617064 -9.008346866213003e-06
-0.9999903166131519 -0.004400748980504129 -9.398840210711316e-06
-0.9999911422172335 -0.004208965845339194 -9.673929035737179e-06
-0.9999921640951909 -0.003958743757007964 -9.802197389376224e-06
-0.9999933989516092 -0.003633450043434525 -9.694803764442141e-06
-0.9999948374168839 -0.003213262151006354 -9.269757643863375e-06
-0.9999964233998487 -0.002674530838877483 -8.503034865489849e-06
-0.9999980215304977 -0.001989190863630343 -7.402582416774186e-06
-0.9999993682735443 -0.001124017940985646 -6.01499627211288e-06
-0.9999999992041182 -3.965787943996777e-05 -4.360691983801597e-06
-0.9999991414768789 0.001310358582677608 -2.426897882533498e-06
-0.9999955573428453 0.00298082111423357 -2.379391457997501e-07
-0.9999873189502291 0.00503606331949129 2.23033024878288e-06
-0.9999714882799829 0.007551331157316439 4.986787750062387e-06
-0.9999436669221743 0.01061427895037483 8.037366457426774e-06
-0.9998973712469654 0.01432643854727427 1.148733520716188e-05
-0.9998231723114349 0.01880488947152229 1.552617236473891e-05
-0.9997075266408247 0.02418389461823998 2.04640802745321e-05
-0.9995312157710137 0.0306161393968646 2.660357567274371e-05
-0.9992672921522894 0.03827372025937088 3.423650432520022e-05
-0.9988784306706526 0.04734848284608926 4.373908266082693e-05
-0.9983135923300821 0.05805142798021934 5.548390321921583e-05
-0.9975039385353942 0.07061081873096871 6.988932980872964e-05
-0.9963580208242063 0.08526832165640384 8.752811238496668e-05
-0.9947563735847833 0.1022728963680977 0.0001089996828847388
-0.9925458739843737 0.1218715300454749 0.000134910971328106
-0.9895344904492199 0.14429644726072 0.0001658895302470123
-0.9854872870764069 0.1697491266135175 0.0002025456269799759
-0.9801249116302886 0.1983811920536889 0.0002454405750083061
-0.9731259200851574 0.2302734388587802 0.0002949823165524068
-0.9641340405363091 0.2654155767890096 0.0003513927825092916
-0.9527711028092304 0.3036890741792965 0.0004145790688504888
-0.938655447502409 0.3448560811184723 0.0004839314638230258
-0.9214247327547925 0.388556495301808 0.000558414303567196
-0.9007624826485519 0.43431157528174 0.0006367331547504223
-0.8764309052523211 0.4815271054003731 0.0007176930642245004
-0.8483225463681925 0.5294791914606422 0.0008019560899380138
-0.816570282564598 0.577245325459693 0.000898814388683725
-0.781828241891352 0.6234929618022975 0.001061491439239175
-0.7460700973883155 0.665865512530783 0.001590284599137831
-0.715308639028664 0.6987975319167458 0.003944656895668115
-0.839963621671326 0.5426296918867342 -0.003759222219717109
-0.8643301027201563 0.5029243155535221 -0.0007786891451666099
-0.8908954846022461 0.4542083528336552 -8.792875639626739e-05
-0.9145822188688484 0.4043999940339665 9.876366451510523e-05
-0.9342401069724563 0.3566446339757141 0.0001660735436438892
-0.9499850775962537 0.312295237342011 0.0001925563194380279
-0.9623333898567086 0.2718720414620008 0.0001995950390084366
-0.9718807405749993 0.2354735394660737 0.000195731218477844
-0.9791833150117165 0.2029778342500541 0.0001854880658071058
-0.9847191309535445 0.1741499458687638 0.000171720709983739
-0.9888820046715152 0.1487022408292904 0.0001562344152135489
-0.9919883293206073 0.1263294694456176 0.0001401474172096962
-0.9942881315757148 0.1067290774662698 0.0001242210632089268
-0.9959767082357214 0.08961241425042751 0.0001089226609333899
-0.9972052634085796 0.07471046575823372 9.453260294242241e-05
-0.99809001337592 0.06177635951559347 8.126657173487947e-05
-0.9987197218190522 0.05058569418952347 6.923177235640693e-05
-0.9991617750948196 0.04093584947203661 5.845828725508706e-05
-0.9994670151823277 0.03264480310348575 4.891689543085887e-05
-0.9996735580493415 0.02554947539724801 4.054496915182225e-05
-0.9998097777502203 0.01950403051585177 3.329702394100729e-05
-0.9998966264845536 0.01437830348267252 2.708817481455002e-05
-0.9999494353657936 0.01005615407962937 2.1834761387024e-05
-0.9999793010283672 0.006434066405334475 1.744446121935525e-05
-0.9999941519632124 0.003419919724042641 1.372793306739129e-05
-0.9999995657536902 0.0009318704482586137 1.048323127944858e-05
-0.9999993920715546 -0.001102632865749215 7.568635393572915e-06
-0.9999962247078721 -0.002747825766268164 4.853957788925755e-06
-0.9999917563917227 -0.004060436340809247 2.30638239019067e-06
-0.9999870436696183 -0.005090431503615326 -5.759655459723952e-08
-0.9999827024215946 -0.005881738921227241 -2.206025797945418e-06
-0.9999790512787138 -0.006472788180797538 -4.109729142367801e-06
-0.9999762152968067 -0.006897014371114031 -5.782634994373602e-06
-0.9999741988342508 -0.007183426353632946 -7.184683760869837e-06
-0.9999729362420485 -0.007357086065336318 -8.251236156589507e-06
-0.9999723253860251 -0.007439649332521034 -8.937223279905701e-06
-0.999972250406085 -0.007449720291222536 -9.239696212389198e-06
-0.9999725960539464 -0.007403178788914235 -9.216822075062694e-06
-0.9999732555932779 -0.007313550303502552 -8.952006737310598e-06
-0.9999741354343484 -0.007192245113194475 -8.518125534091733e-06
-0.9999751559895557 -0.007048924748382499 -7.972163071860502e-06
-0.9999762518492552 -0.006891711220356332 -7.346402894157977e-06
-0.9999773708905598 -0.006727381495465133 -6.709511252726203e-06
-0.999978472979431 -0.006561519635275632 -6.148238422549499e-06
-0.9999795286188952 -0.00639861787406884 -5.695021058340067e-06
-0.9999805169600461 -0.006242248921680253 -5.358956894110031e-06
-0.999981424458758 -0.006095138334836386 -5.109979959458834e-06
-0.999982243140509 -0.005959310285627985 -4.959356222587015e-06
-0.9999829698902095 -0.005836086473465648 -4.92242517789554e-06
-0.9999836060162572 -0.005726052220237433 -4.96927841671286e-06
-0.9999841563262788 -0.005629126981906728 -5.083493361603026e-06
-0.99998462842052 -0.005544627588339065 -5.251771636865826e-06
-0.999985032463627 -0.005471272098938257 -5.5079512558422e-06
-0.9999853820352999 -0.005407003018252417 -5.837407793434439e-06
-0.9999856942085747 -0.005348956871258611 -6.211572836650287e-06
-0.9999859895789771 -0.005293448928025284 -6.648305830769193e-06
-0.9999862927055079 -0.005235871455114748 -7.155373182755326e-06
-0.999986632583257 -0.005170550725990664 -7.745158865960505e-06
-0.9999870432714142 -0.00509050286769288 -8.357535766388951e-06
-0.9999875634142402 -0.004987277537136245 -8.92289971583291e-06
-0.9999882353732383 -0.004850672800263382 -9.407518178557478e-06
-0.9999891024994115 -0.00466848869529124 -9.783806602524565e-06
-0.9999902042711694 -0.004426201669787929 -1.002411251391849e-05
-0.9999915685461466 -0.00410642615551841 -1.004221142256822e-05
-0.9999931976335659 -0.003688440239086573 -9.756944475207727e-06
-0.9999950464909867 -0.00314752439799584 -9.146185517125762e-06
-0.9999969880646209 -0.00245434188535091 -8.221654153346967e-06
-0.9999987609698399 -0.001574169382454928 -7.038489202667038e-06