# OOMMF: rectangular mesh v1.0
# Segment count: 1
# Begin: Segment
# Begin: Header
# Title: 
# meshunit: m
# valueunit: (none)
# valuemultiplier: 430000.0000000001
# xmin: 0
# ymin: 0
# zmin: 0
# xmax: 1e-07
# ymax: 1e-07
# zmax: 1e-09
# ValueRangeMaxMag: 1
# ValueRangeMinMag: 0.9999999999999997
# meshtype: rectangular
# xbase: 1e-09
# ybase: 1e-09
# zbase: 5e-10
# xstepsize: 2e-09
# ystepsize: 2e-09
# zstepsize: 1e-09
# xnodes: 50
# ynodes: 50
# znodes: 1
# End: Header
# Begin: Data Text
1.371556258541248e-09 -4.972248112423182e-09 0.9999999999999998
-0.0008007841803963715 3.567005441523032e-07 0.999999679372233
-0.001607068007446289 7.182653737911237e-07 0.9999987086651178
-0.002423652042633641 1.079592411230702e-06 0.9999970629504922
-0.003253941647356002 1.440056199983768e-06 0.9999947059168273
-0.004099242164049376 1.79830490318368e-06 0.9999915980699269
-0.004958061127838705 2.152054265848198e-06 0.9999877087370729
-0.005825437471716131 2.497920083722233e-06 0.9999830319920548
-0.006692334779464032 2.83128261077826e-06 0.9999776060728475
-0.007545152151265666 3.146225536128992e-06 0.9999715349294275
-0.008365423544499416 3.4355580057394e-06 0.9999650092263817
-0.00912978947698327 3.69092219081649e-06 0.9999583225967383
-0.009810331212418854 3.903027024545208e-06 0.9999518775352485
-0.01037535231350975 4.061977317953951e-06 0.9999461745753471
-0.0107906703337618 4.157761716441348e-06 0.9999417790133887
-0.01102144183456758 4.180825999864074e-06 0.999939262056655
-0.01103448398936897 4.122737557565768e-06 0.9999391182197499
-0.01080097979473607 3.97692614667526e-06 0.9999416677085006
-0.01029937213037638 3.739381984445722e-06 0.9999469600532503
-0.00951817393590864 3.409296865759385e-06 0.9999547011506582
-0.008458367344127733 2.989560068954512e-06 0.9999642273666264
-0.007135050429795895 2.48704545153878e-06 0.999974545200616
-0.005578027460560043 1.912613175824566e-06 0.9999844426819805
-0.003831134426243953 1.280823952206375e-06 0.9999926611767543
-0.001950236322366389 6.093279143916519e-07 0.9999980982871494
-7.012718604948975e-09 -8.200353801804857e-08 0.9999999999999964
0.00195022250277559 -7.721652308973402e-07 0.9999980983139882
0.003831121155883915 -1.440210562407735e-06 0.9999926612273784
0.005578015020838047 -2.066427269356214e-06 0.9999844427510644
0.007135039042658803 -2.633415242824569e-06 0.9999745452814908
0.008458357183949347 -3.126946322149809e-06 0.9999642274521479
0.009518165163998858 -3.536519054685205e-06 0.9999547012337127
0.01029936483596137 -3.855669969278486e-06 0.9999469601279406
0.01080097398989967 -4.081893732482281e-06 0.9999416677707793
0.01103447962888674 -4.216366660058298e-06 0.9999391182674781
0.0110214387558986 -4.263418535266383e-06 0.9999392620902395
0.01079066841550838 -4.229877190316752e-06 0.9999417790337867
0.01037535146800477 -4.124353750387331e-06 0.9999461745838646
0.009810331273237704 -3.956516518279633e-06 0.9999518775344418
0.009129790266302276 -3.736442850634997e-06 0.9999583225893629
0.008365424908442075 -3.474044740462419e-06 0.9999650092148383
0.007545153932285078 -3.178596248818628e-06 0.9999715349158869
0.006692336878313193 -2.858420797678988e-06 0.999977606058724
0.005825439819476202 -2.520655830171347e-06 0.9999830319783211
0.004958063662632856 -2.171145182356178e-06 0.9999877087244637
0.00409924480252885 -1.814447953904114e-06 0.9999915980590821
0.003253944308927322 -1.45388637331027e-06 0.9999947059081465
0.002423654723117136 -1.091686533991549e-06 0.9999970629439825
0.001607070706301385 -7.291540446220896e-07 0.9999987086607726
0.0008007869068294835 -3.668801719504413e-07 0.999999679370046
-3.606677502025244e-07 -0.0008007904785392008 0.9999996793671881
-0.0008203852506208336 -0.0008196538759024464 0.9999993275675561
-0.001646466132179961 -0.0008775410156938061 0.9999982595340058
-0.002483932312768384 -0.0009761144065773932 0.9999964386341236
-0.003336678912286274 -0.00111808675146178 0.9999938082087571
-0.004206439065094651 -0.001307124518696196 0.9999902986008833
-0.005092054988625276 -0.001547696086832726 0.9999858377061223
-0.005988768407996746 -0.001844849354330254 0.9999803653991488
-0.006887567386626681 -0.002203902328643363 0.9999738517731454
-0.007774644642292858 -0.002630031256079151 0.9999663183509121
-0.008631041829833654 -0.003127745774466398 0.9999578602737724
-0.00943256970212108 -0.003700250261079067 0.9999486660708237
-0.01015010308076267 -0.004348705627760775 0.9999390302247497
-0.01075034653394331 -0.005071426577246157 0.9999293528454254
-0.01119714623874423 -0.005863074277997351 0.9999201209477276
-0.01145338284485994 -0.006713931082220162 0.999911867691764
-0.0114834176479318 -0.007609367008095933 0.9999051098243567
-0.01125598102461519 -0.008529621014733356 0.9999002692551485
-0.01074730075064749 -0.009450016474655227 0.9998975911138117
-0.009944177829744631 -0.01034170295377813 0.9998970759569735
-0.00884665115500176 -0.01117296322979344 0.9998984456713629
-0.007469869198178591 -0.01191104783158245 0.9999011591120972
-0.005844822423181265 -0.01252441055705059 0.9999044840338699
-0.004017691882262768 -0.01298513130308147 0.9999076179912725
-0.00204773030714961 -0.01327125032662924 0.9999098362929313
-3.788628269868385e-06 -0.01336871582889191 0.9999106347182894
0.002040198887761895 -0.01327267785108757 0.9999098327405124
0.004010295973460825 -0.01298794247518392 0.9999076111703852
0.005837646038514806 -0.01252852012765536 0.9999044744735066
0.007462987442402901 -0.01191633402163841 0.9999011475150525
0.008840127664369131 -0.01117927441901422 0.9998984328252253
0.009938063057163223 -0.01034886546187974 0.9998970626451121
0.0107416310417782 -0.009457843041252269 0.9998975780386554
0.01125077862350126 -0.008537919200979818 0.9999002569837063
0.01147869142496838 -0.007617946886291833 0.9999050987610812
0.01144912954194314 -0.006722611817108299 0.9999118580770447
0.01119335235768269 -0.00587168937546635 0.9999201128724609
0.01074699025179594 -0.005079827579693517 0.9999293462801699
0.01014715609795684 -0.004356764291938443 0.999939025055042
0.009429999221441008 -0.003707859344244371 0.9999486621290947
0.008628812241194573 -0.003134818653546262 0.9999578573676569
0.007772718951729475 -0.002636500533053111 0.9999663162852218
0.006885908431771878 -0.002209717788038174 0.9999738503642813
0.005987339677606874 -0.001849975472459861 0.9999803644843912
0.005090821182924503 -0.001552109330346203 0.9999858371478617
0.004205366374203049 -0.001310810630257327 0.9999902982875135
0.003335735159991896 -0.001121038190271069 0.9999938080529889
0.002483086969406424 -0.0009783280741415751 0.9999964385702987
0.001645690030202384 -0.0008790163300676163 0.9999982595157932
0.000819650271851875 -0.0008203912908998433 0.9999993275655545
-7.227319127439012e-07 -0.001607074327444176 0.9999987086549578
-0.0008790101954656782 -0.001645693353531403 0.9999982595157163
-0.001765050734977658 -0.001763498065162184 0.9999968873303939
-0.002665805286278976 -0.00196396459406328 0.9999945181475988
-0.003586691044537583 -0.002252774776760011 0.9999910302863501
-0.004530779886051038 -0.002637629174025646 0.9999862573785524
-0.005497975352494353 -0.003127949179802605 0.9999799939003536
-0.006484184609929645 -0.003734435485774857 0.9999720042788931
-0.007480521921637817 -0.004468446139660123 0.9999620366698311
-0.008472602784078043 -0.005341158804850441 0.9999498422544423
-0.009440013860570938 -0.006362490867742492 0.9999352003246358
-0.01035606711733842 -0.007539770163458259 0.9999179485036475
-0.01118796386094084 -0.008876180202151734 0.9998980162444892
-0.01189749998475322 -0.01036904785479677 0.9998754584150454
-0.01244242755080966 -0.01200809546791146 0.9998504846425169
-0.01277854718657709 -0.01377383927144228 0.9998234794620121
-0.01286253326216892 -0.01563636986713175 0.999795008576987
-0.01265539064035303 -0.01755478523174673 0.9997658078786288
-0.01212631920064788 -0.01947754504078448 0.9997367541617282
-0.0112566332911657 -0.02134396165399932 0.9997088193608481
-0.01004327781256751 -0.02308693016234835 0.9996830128728096
-0.008501429591629724 -0.02463683243555813 0.9996603183994253
-0.006665698885983589 -0.02592634997373753 0.9996416322039615
-0.004589567631225131 -0.02689572352111985 0.9996277086621969
-0.00234291151599144 -0.02749784946801378 0.9996191169841954
-7.723922347214513e-06 -0.02770254995369914 0.9996162106860832
0.002327558189117208 -0.02749941615265595 0.9996191097533795
0.004574493760252211 -0.02689880713734043 0.9996276947851261
0.006651077580705011 -0.02593085399827932 0.9996416127682636
0.008487415322525419 -0.02464261929349018 0.9996602948479542
0.01003000108332578 -0.02309382912842617 0.9996829868185488
0.01124419709294014 -0.02135177791614699 0.9997087924048454
0.01211479720258864 -0.01948606956018998 0.9997367277347747
0.01264482730867691 -0.01756380446715757 0.999765783128715
0.01285294541657745 -0.01564567437740248 0.9997949863183924
0.01276992686694274 -0.01378323112451875 0.9998234601706345
0.01243474577302999 -0.01201739393581282 0.9998504684904395
0.01189071081254238 -0.01037809330134192 0.9998754453309675
0.01118200839696576 -0.008884836170004969 0.9998980059858315
0.01035087749384491 -0.007547923976640172 0.9999179407225126
0.009435516708862675 -0.006370052870462582 0.9999351946255637
0.008468722200035226 -0.005348060536482953 0.999949838238297
0.007477181858690407 -0.004474637844492603 0.9999620339630961
0.006481310542150555 -0.003739883178723662 0.9999720025518041
0.00549549541372816 -0.003132631524564817 0.999979992874802
0.004528625464900762 -0.00264153441933714 0.9999862568292175
0.003584796981376111 -0.002255897903913832 0.9999910300373944
0.002664109795371519 -0.001966304793549845 0.9999945180672025
0.001763494886615244 -0.001765056630582248 0.9999968873255933
0.0008775372431919312 -0.001646472052989359 0.9999982595275679
-1.084754189720347e-06 -0.002423658417185325 0.9999970629350368
-0.0009783215592961048 -0.002483090023857759 0.9999964385690879
-0.001966298640233983 -0.002664112375702282 0.9999945180724277
-0.002974869808094833 -0.002972322478707758 0.9999911576852603
-0.004012170950549049 -0.003416894609828306 0.9999861135613277
-0.005083697660123242 -0.004010316949523422 0.9999790364682973
-0.006191323463052973 -0.004767962739351229 0.9999694665564003
-0.007332267161983038 -0.005707440003479777 0.9999568305616355
-0.008498043183756831 -0.006847655376895649 0.9999404446655242
-0.009673459512585421 -0.008207526896009574 0.9999195271037111
-0.01083576521128533 -0.009804291938133284 0.9998932253255234
-0.01195408697172907 -0.01165138435477773 0.9998606628162194
-0.01298932818963188 -0.01375590346504348 0.99982101021785
-0.01389472557408964 -0.01611576912321217 0.9997735836612148
-0.01461725429003202 -0.01871674982603368 0.9997179698059697
-0.01510003391927175 -0.0215296571437553 0.9996541716208204
-0.0152858007680373 -0.02450810230148491 0.9995827615642735
-0.01512137382521217 -0.02758728493857175 0.9995050203792654
-0.01456286144955995 -0.03068429901024625 0.9994230319842796
-0.01358115152067771 -0.03370036487058085 0.9993397008680092
-0.01216704304115831 -0.036525211955359 0.9992586611860066
-0.01033526124148156 -0.03904354659522496 0.999184059042345
-0.008126599208250417 -0.0411431802129744 0.999120211539768
-0.005607583657743211 -0.04272402906656361 0.9990711748148079
-0.002867368144126849 -0.04370691719225867 0.9990402812647118
-1.197154183160071e-05 -0.04404099958041378 0.9990297243889392
0.002843574592340768 -0.04370872561158221 0.9990402701537855
0.005584232114033979 -0.04272758578800029 0.9990711535043063
0.008103962936243311 -0.04114836864055948 0.9991201817313812
0.01031358331334563 -0.03905020120869417 0.9991840229831533
0.01214652777833501 -0.03653312828313501 0.9992586213792592
0.01356195895293786 -0.03370931094001474 0.9993396597880561
0.01454510461975999 -0.03069402766657777 0.9994229918293871
0.01510511919744722 -0.02759754579473248 0.9995049828991041
0.01527107112011441 -0.02451865213757005 0.9995827279841327
0.01508681309711642 -0.02154026863224962 0.9996541426402548
0.01460549338314816 -0.01872721791464981 0.9997179456587801
0.01388434958203686 -0.01612591529130573 0.9997735642097672
0.01298024248148557 -0.01376557759348031 0.9998209950679369
0.0119461836077746 -0.01166046490215442 0.9998606514187239
0.01082892840746265 -0.009812684533820566 0.999893217064595
0.00966757022915651 -0.008215161708637508 0.999919521363577
0.008492982803528427 -0.006854483848241519 0.9999404408734915
0.00732792000749976 -0.005713431133175599 0.9999568282146234
0.00618757846882607 -0.0047730992444435 0.9999694652319612
0.0050804492305337 -0.004014591604733744 0.999979035825183
0.00400931917831398 -0.003420306891379972 0.9999861133338276
0.002972320232691254 -0.002974875624088211 0.9999911576746342
0.001963961400553571 -0.002665810962364666 0.9999945181387396
0.0009761102908611131 -0.002483938139599959 0.9999964386236675
-1.446090065993395e-06 -0.003253948045519193 0.9999947058959991
-0.001121030949998461 -0.00333573792318724 0.9999938080518883
-0.002255891152612567 -0.003584798960332137 0.9999910300455305
-0.003420300586942926 -0.004009320491141407 0.9999861133501274
-0.004626593178172562 -0.004622775131206953 0.9999786120641029
-0.005884076365338011 -0.005443605662056452 0.9999678718852534
-0.007197824411163819 -0.006494695252761207 0.9999530040243488
-0.008567345238369434 -0.007802533753169814 0.9999328582772928
-0.009985147220697396 -0.009395975933846331 0.9999060018177863
-0.01143527435514475 -0.01130448099354763 0.9998707132474123
-0.01289193280749317 -0.01355573255635462 0.9998250047800104
-0.01431839199648764 -0.01617257242868901 0.9997666885587224
-0.01566640515276323 -0.01916924840122054 0.9996935048630264
-0.01687644568058291 -0.02254708201848915 0.9996033286627458
-0.01787907602081156 -0.02628980701712041 0.9994944645607818
-0.01859773823626176 -0.0303590050856949 0.9993660265101579
-0.01895315383209024 -0.03469024771465714 0.9992183768692969
-0.0188693309874584 -0.03919070141557104 0.9990535707711778
-0.01828090384573557 -0.04373901390448245 0.9988757216076715
-0.01714119516058275 -0.04818821337685816 0.998691181256755
-0.01543006554852462 -0.05237208015288539 0.9985084267534388
-0.01316037349816926 -0.0561149835233447 0.9983375747679555
-0.01038181312540721 -0.05924457166316215 0.9981895104060536
-0.007181095253277305 -0.06160607063636728 0.9980747085923527
-0.003677900594651952 -0.06307644204181539 0.9980019215946236
-1.670187069244124e-05 -0.06357642161931201 0.9979769728481367
0.003644711562335108 -0.06307861111704614 0.9980019062592876
0.007148540471258642 -0.06161033261839022 0.9980746792118221
0.01035028367634275 -0.05925077924429205 0.9981894693828236
0.01313021558450615 -0.05612292825992977 0.9983375252700034
0.01540156812177421 -0.05238150592702728 0.998508372291493
0.01711458211545095 -0.04819883176961454 0.9986911252710007
0.01825633051503121 -0.04375052032069419 0.9988756671216863
0.01884688513548871 -0.0392027902132767 0.9990535201680554
0.01893286049338562 -0.0347026254516016 0.9992183317875546
0.0185795672512475 -0.0303714011745341 0.9993659878500225
0.01786295130558873 -0.02630198117832628 0.999494432579166
0.01686225512879259 -0.02255882870378514 0.9996033031155331
0.01565401026514424 -0.01918039845617396 0.9996934851631677
0.01430763689262298 -0.01618299240515205 0.9997666739211523
0.01288265202489239 -0.0135653222441472 0.9998249943411187
0.01142729923064378 -0.01131316956041079 0.999870706154946
0.009978310934870888 -0.009403717453078267 0.9999059972862195
0.00856148618481666 -0.007809302327959163 0.9999328556215451
0.007192788371390895 -0.006500480156982803 0.999953002672212
0.005879717562497635 -0.005448406782304223 0.9999678713763357
0.004622774377584861 -0.00462659888004595 0.999978612041206
0.003416892572245126 -0.004012176296141479 0.9999861135468424
0.002252771446062372 -0.003586696400517469 0.9999910302746431
0.001118082142801578 -0.003336684570948651 0.9999938081950287
-1.80545396557438e-06 -0.004099248666292524 0.9999915980432594
-0.00131080233366967 -0.004205368873121719 0.9999902982878797
-0.002641526722815633 -0.004528626802228865 0.999986256843492
-0.004014584447336604 -0.005080449483936789 0.9999790358526303
-0.005448400302711266 -0.00587971683291458 0.9999678714159299
-0.006957932958414952 -0.006952444261659941 0.9999516241737569
-0.008553178086081931 -0.008331206615448413 0.9999287145296698
-0.01023742810604489 -0.01005417365579021 0.9998970490294851
-0.01200529778153731 -0.01216359706573391 0.9998539492003813
-0.0138405811822112 -0.01470356937602431 0.9997961008926484
-0.01571408350915432 -0.01771687691001681 0.9997195506000783
-0.01758166555556061 -0.02124080365004369 0.999619784366332
-0.01938284387499517 -0.02530182622380295 0.999491932410191
-0.0210403924846495 -0.02990928647445025 0.9993311445495336
-0.02246146096028031 -0.03504834387125085 0.9991331724867373
-0.0235407273943875 -0.04067278939506123 0.9988951688523514
-0.02416599754587904 -0.04669861592362164 0.998616665109005
-0.02422640508876254 -0.0529995226307717 0.9983006220059091
-0.02362295429051194 -0.05940569422898535 0.9979543674556268
-0.02228060106701059 -0.06570713219082587 0.9975901701577405
-0.02016048709632281 -0.07166243456222894 0.9972251752902415
-0.01727047455166385 -0.07701319580279083 0.9968804834989003
-0.01367194246363924 -0.08150320390030961 0.9965793022851995
-0.009481051947866298 -0.08490053238695901 0.9963443226387013
-0.004863403027523403 -0.08701972846044657 0.9961947169954585
-2.210268002749273e-05 -0.08774086133296072 0.9961433334435468
0.004819492257758864 -0.08702240226559627 0.9961946968330547
0.009438010966485683 -0.08490578028126164 0.9963442840824783
0.01363030552467762 -0.08151083384721421 0.9965792485983416
0.01723071186364461 -0.07702293716112137 0.9968804189669621
0.02012298749512566 -0.07167395682869018 0.9972251046212132
0.0222456614590927 -0.06572006612404022 0.9975900979134159
0.02359077557065945 -0.0594196534607636 0.997954297596126
0.02419709442549566 -0.05301412396953295 0.9983005575882977
0.02413957632424102 -0.04671349620440196 0.9986166081771557
0.02351714237132901 -0.04068761877235066 0.9988951204672701
0.02244059795419117 -0.03506283464134887 0.9991331328658716
0.02102209058476896 -0.02992319754863913 0.9993311132732288
0.01936690894115739 -0.02531496415575244 0.9994919086355115
0.01756788261888289 -0.0212530206513041 0.9996197670181817
0.01570222721063726 -0.01772806668147361 0.9997195385268622
0.01383042429815196 -0.01471366152268931 0.9997960929751268
0.01199661763453013 -0.0121725508175862 0.9998539444198457
0.01023001073269016 -0.01006197139761607 0.9998970465062902
0.008546820943478306 -0.008337847621006041 0.9999287135335241
0.006952445859668217 -0.006957938921999892 0.99995162412115
0.005443605309687893 -0.005884081618856341 0.9999678718562585
0.004010314949298231 -0.005083702659350027 0.9999790364509041
0.002637625497741852 -0.004530785024751827 0.9999862573649666
0.001307119196799005 -0.004206444648768405 0.9999902985843522
-2.160506532654326e-06 -0.004958067591508493 0.999987708705007
-0.001552099532472468 -0.00509082331968165 0.9999858371521914
-0.003132622425845939 -0.005495495989783884 0.9999799929001394
-0.004773090754690486 -0.006187577542115916 0.9999694652782191
-0.006500472404125564 -0.007192786006625905 0.9999530027396215
-0.008337840417316717 -0.008546817217014507 0.9999287136254433
-0.01030252809949497 -0.01029481479537719 0.9998939317263045
-0.01240386723048865 -0.01249037322586938 0.9998450553232768
-0.01464048398558647 -0.01519383631615409 0.9997773770028332
-0.01699719980539276 -0.01846961135507804 0.9996849346945104
-0.01944169232316419 -0.02238219976063331 0.9995604322568427
-0.02192121237601301 -0.02699066890972021 0.9993952992884103
-0.0243598259806332 -0.0323413822665224 0.9991799807198318
-0.02665683684114003 -0.03845899418263427 0.9989045594130026
-0.02868720469158085 -0.04533602529315899 0.9985598074715409
-0.030304852067639 -0.05292176661810748 0.9981387190962873
-0.03134966720580988 -0.06111178323062127 0.9976384857835318
-0.0316586809275996 -0.06973981075956695 0.9970627295798112
-0.03108127966356696 -0.07857420809540396 0.9964236287225704
-0.02949742858377417 -0.08732115757095722 0.9957433992487286
-0.02683686392293802 -0.09563630269759371 0.9950545112410252
-0.02309632182902567 -0.1031454067968507 0.9943981018559328
-0.01835141742873945 -0.1094729896337774 0.993820350978485
-0.01276006621003037 -0.1142760738023431 0.9933670820329394
-0.006555455421642992 -0.1172786060572517 0.9930774161995037
-2.838565322113851e-05 -0.1183013044825311 0.9929777442379993
0.006499079249786148 -0.117281963565634 0.9930773902325507
0.01270485557486612 -0.1142826557592214 0.9933670324897241
0.01829808492467536 -0.109482540303523 0.9938202822727943
0.02304549013131069 -0.1031575676747426 0.9943980197164706
0.02678904190465984 -0.09565063880392265 0.9950544218937131
0.02945299767513523 -0.08733718699617525 0.9957433086370923
0.03104048956152288 -0.07859143215259796 0.9964235418736272
0.03162165428789238 -0.06975774050635145 0.9970626502981371
0.03131641211174018 -0.0611299622302019 0.9976384164867457
0.03027527880549932 -0.05293978705644943 0.9981386609282633
0.02866114531473376 -0.04535353843849684 0.9985597605052765
0.02663406517389682 -0.0384757145405944 0.998904522946464
0.02434007607262636 -0.03235708745982032 0.9991799535558626
0.02190419511477566 -0.02700519542863025 0.9993952799849692
0.01942710900353795 -0.02239543646982386 0.9995604193149559
0.01698475300797974 -0.01848149129693599 0.999684926686753
0.01462988537932343 -0.01520432798437565 0.9997773726506971
0.01239484252209947 -0.01249947191721642 0.9998450535361182
0.01029481990161574 -0.01030253449132221 0.9998939316078721
0.008331209035369052 -0.008553183288934195 0.9999287144650038
0.006494695234575401 -0.007197828976617363 0.999953003991604
0.004767960665286692 -0.00619132789703278 0.9999694665388367
0.003127945024916217 -0.005497980070970227 0.9999799938874079
0.001547689902782319 -0.005092060315344026 0.9999858376885693
-2.507908614162836e-06 -0.005825443855871697 0.9999830319548387
-0.001849963723870278 -0.005987341461048812 0.999980364495448
-0.00373987221539646 -0.006481310320920754 0.9999720025942408
-0.005713420820048918 -0.007327917836376974 0.9999568282894596
-0.007809292743502106 -0.008561482054362074 0.9999328557317629
-0.01006196231562821 -0.01023000469144803 0.9998970466594905
-0.01249946363570325 -0.01239483447382902 0.999845053739421
-0.01514049347473208 -0.01512980590739002 0.9997709009720906
-0.0179907607885223 -0.01851951290886418 0.9996666245143269
-0.02103858180769437 -0.0226562964882709 0.999521920872652
-0.02424986199484376 -0.02763546493914805 0.999323884069038
-0.02756280938384343 -0.03354825604100977 0.9990569583639746
-0.03088299290138908 -0.04047213201266922 0.9987032829022849
-0.03407968233601053 -0.04845822511153458 0.9982436454447962
-0.03698472520778601 -0.05751617537977243 0.9976592703277947
-0.03939544888976137 -0.06759725453720265 0.9969346065744765
-0.04108308025604025 -0.0785775219139727 0.9960611193930495
-0.04180779042593692 -0.09024369626032541 0.9950418000993599
-0.04134057685366189 -0.1022851937982469 0.99389571678072
-0.03949076580032954 -0.1142960445871312 0.9926615201609458
-0.03613615619431315 -0.1257897828112367 0.9913985620101545
-0.0312511618613894 -0.1362287247707544 0.9901843764823028
-0.02492732177324309 -0.1450663956512033 0.989107865443391
-0.01738081137076431 -0.1517987915633887 0.9882585867453864
-0.008943334016740974 -0.1560174658287878 0.9877138083134342
-3.579169240281068e-05 -0.1574559917498254 0.9875260044074956
0.008872274364186018 -0.1560217344326596 0.987713774902543
0.01731129482131627 -0.1518071483780029 0.9882585232483189
0.02486028658904153 -0.1450784956057644 0.989107777880388
0.0311874208744329 -0.1362440867663248 0.9901842725474944
0.03607636436549156 -0.1258078267412125 0.9913984500012197
0.03943540277667004 -0.1143161339934227 0.9926614077905113
0.04128994344211001 -0.102306677217456 0.9938956103974252
0.04176201748692168 -0.09026594368758586 0.9950417043047048
0.04104214770860468 -0.07859995439672531 0.9960610369250958
0.03935921091688096 -0.06761936442294508 0.9969345385084406
0.03695293813800475 -0.05753753780474938 0.9976592164192818
0.03405203228215555 -0.04847850143596123 0.9982436045354751
0.03085912053015407 -0.04049106742197735 0.9987032532935566
0.02754233189128923 -0.03356567188434292 0.9990569381296256
0.02423239015485666 -0.02765124849871447 0.9993238712869043
0.02102373341603941 -0.02267038950266975 0.9995219137532945
0.01797816995077689 -0.01853189939329497 0.9996666214844315
0.01512981595406326 -0.01514050063121166 0.9997709007116741
0.01249037962605031 -0.01240387251672972 0.9998450551777437
0.01005417677098488 -0.01023743228976653 0.9998970489553263
0.007802533898251756 -0.008567348916522999 0.9999328582446468
0.005707437673268603 -0.007332270859410072 0.9999568305478239
0.003734430653454426 -0.006484188783540287 0.9999720042698763
0.001844842082897949 -0.005988773406590606 0.9999803653826275
-2.84310604118965e-06 -0.006692341013299778 0.9999776060310942
-0.00220970361987684 -0.006885909817353646 0.9999738503860484
-0.004474624539282965 -0.007477180740424013 0.9999620340309964
-0.006854471188995612 -0.008492979183200428 0.9999404409910184
-0.009403705450928295 -0.009978304744065275 0.9999059974608745
-0.01217253919558494 -0.01199660883323099 0.999853944666937
-0.01520431703306573 -0.01462987381370796 0.9997773729864829
-0.01853188951433664 -0.01797815550442133 0.9996666219273737
-0.02217278300889686 -0.02215811882987216 0.9995085719810316
-0.02612306634831123 -0.02729995476881761 0.9992858939633752
-0.03034998889175911 -0.03354193458329458 0.9989763845049991
-0.03478374257873176 -0.04102177511482292 0.9985526051333725
-0.03930910447937454 -0.04986401957261955 0.997982151071396
-0.04375824700638654 -0.06016287626036693 0.9972289828013462
-0.04790659405452564 -0.07196050742678708 0.9962563142168654
-0.05147413673709326 -0.08522171384350651 0.9950314933391536
-0.05413485863113127 -0.09980733041658256 0.9935330461922754
-0.05553655702762433 -0.1154502843660722 0.9917595084864629
-0.05533208877114229 -0.1317397739952164 0.9897388503539261
-0.05322078919470248 -0.14811979106543 0.987536366465674
-0.04899576730817108 -0.1639075199461149 0.9852582096541987
-0.0425897178305162 -0.1783345591396971 0.9830477612769213
-0.03410988528084388 -0.1906095630311289 0.9810731421291734
-0.02385296751297284 -0.1999957383857495 0.9795063759712661
-0.01229353478982397 -0.2058921080852672 0.9784974751273381
-4.459242261350577e-05 -0.2079050888878345 0.9781490029775919
0.01220503949641334 -0.205897580234008 0.9784974315064249
0.02376650149929714 -0.2000064362888008 0.9795062934200769
0.03402667520129746 -0.1906250165218883 0.9810730291118878
0.04251081549509576 -0.1783541159654564 0.9830476284921918
0.04892200639442835 -0.1639304000811112 0.98525806833519
0.05315276358180061 -0.1481451468967327 0.9875362267656629
0.05527015052923139 -0.1317667486564254 0.9897387202736843
0.05548083241147644 -0.1154780614161947 0.9917593934853789
0.05408527764822252 -0.09983517237349263 0.9935329491762565
0.05143046958729001 -0.08524898727593878 0.995031415065101
0.04786849109033157 -0.07198669516603956 0.9962562538221811
0.04372527648268291 -0.06018757856539748 0.9972289384002786
0.03928078578806926 -0.04988694763849154 0.9979821202422345
0.03475957427470529 -0.04104273856996657 0.9985525852988005
0.03032947001488027 -0.03356082574534356 0.9989763732060467
0.02610571239174866 -0.02731673234443184 0.9992858889799964
0.02215813638670111 -0.02217279144664121 0.9995085714046337
0.01851952498413523 -0.01799076650033487 0.9996666241878299
0.01519384395755885 -0.01464048789146667 0.9997773768295085
0.01216360077927164 -0.01200530074677579 0.9998539491196009
0.009395976103585698 -0.009985149859896932 0.9999060017898361
0.006847652622563241 -0.008498046056731641 0.9999404446599697
0.00446844042802653 -0.00748052548033357 0.9999620366687321
0.002203893740959185 -0.0068875719767987 0.9999738517604561
-3.160057966553665e-06 -0.007545158021741346 0.9999715348850889
-0.002636483323565634 -0.00777271975446011 0.9999663163243564
-0.005348044239630769 -0.00846871999030881 0.9999498383441723
-0.008215145977060096 -0.009667564931412511 0.9999195215440453
-0.01131315433982569 -0.01142729073620421 0.9998707064242424
-0.01471364641855505 -0.01383041242690071 0.9997960933616269
-0.01848147664341641 -0.01698473745861561 0.9996849272218424
-0.02267037566213396 -0.02102371388395653 0.9995219144780482
-0.02731671974726475 -0.0261056884496514 0.9992858899498275
-0.0324311875699036 -0.03241121714992039 0.9989483125145495
-0.03798821677830691 -0.04013731982764397 0.9984717777398906
-0.04391352792510236 -0.04948735130802753 0.9978089016067589
-0.05007056047979513 -0.06065506523640801 0.9969021526882195
-0.05624750430399882 -0.07380163043396427 0.9956854611798144
-0.06214764940694427 -0.08902501890008482 0.9940886357277356
-0.06738687107835854 -0.1063225370283145 0.9920456278448744
-0.07150282531364659 -0.1255494340914488 0.9895072943498106
-0.07398028455542265 -0.1463793382441955 0.9864583147970774
-0.0742953606629262 -0.1682751232599776 0.9829362554488488
-0.07197773038744502 -0.1904805749456493 0.9790486999616754
-0.06668471278266173 -0.212042527160452 0.9749826233100273
-0.05827544570222145 -0.2318690174137872 0.9709998615817469
-0.04686954605113359 -0.2488217303332808 0.9674145916652863
-0.03287460002502993 -0.2618323584093838 0.9645533042621199
-0.01697148994500249 -0.2700252581772616 0.9627036555842872
-5.508030481577944e-05 -0.2728254185986683 0.9620635571170031
0.01686223288934253 -0.2700323115193978 0.9627035970834824
0.03276799843091297 -0.2618461258404959 0.9645531943139035
0.04676719498919112 -0.2488415678921496 0.9674144425021882
0.05817869819992456 -0.2318940358975268 0.9709996885637596
0.06659462178197521 -0.2120716714815851 0.9749824421520227
0.07189502191117529 -0.1905127108349868 0.9790485242492815
0.07422043546368437 -0.1683091187851259 0.9829360953253039