# ODT 1.0
# Table Start
# Title: (no title)
#
## Generated by magnum.DataTableStepHandler.
## Number of columns: 6
#
# Columns:   {time}                    {step size}               {average magn. x}         {average magn. y}         {average magn. z}         {wall clock time}         
# Units:     {s}                       {s}                       {A/m}                     {A/m}                     {A/m}                     {s}                       
1.0099999999999986e-13	1e-15	0.0	0.0	0.0	1.072	
1.0199999999999986e-13	1e-15	0.0	0.0	0.0	1.078	
1.0299999999999985e-13	1e-15	0.0	0.0	0.0	1.084	
1.0399999999999985e-13	1e-15	0.0	0.0	0.0	1.091	
1.0499999999999984e-13	1e-15	0.0	0.0	0.0	1.097	
1.0599999999999984e-13	1e-15	0.0	0.0	0.0	1.104	
1.0699999999999983e-13	1e-15	0.0	0.0	0.0	1.110	
1.0799999999999983e-13	1e-15	0.0	0.0	0.0	1.116	
1.0899999999999983e-13	1e-15	0.0	0.0	0.0	1.123	
1.0999999999999982e-13	1e-15	0.0	0.0	0.0	1.129	
1.1099999999999982e-13	1e-15	0.0	0.0	0.0	1.136	
1.1199999999999981e-13	1e-15	0.0	0.0	0.0	1.142	
1.1299999999999981e-13	1e-15	0.0	0.0	0.0	1.148	
1.1399999999999982e-13	1e-15	0.0	0.0	0.0	1.155	
1.1499999999999981e-13	1e-15	0.0	0.0	0.0	1.161	
1.159999999999998e-13	1e-15	0.0	0.0	0.0	1.167	
1.169999999999998e-13	1e-15	0.0	0.0	0.0	1.174	
1.179999999999998e-13	1e-15	0.0	0.0	0.0	1.180	
1.189999999999998e-13	1e-15	0.0	0.0	0.0	1.187	
1.199999999999998e-13	1e-15	0.0	0.0	0.0	1.193	
1.2099999999999979e-13	1e-15	0.0	0.0	0.0	1.199	
1.2199999999999978e-13	1e-15	0.0	0.0	0.0	1.206	
1.2299999999999978e-13	1e-15	0.0	0.0	0.0	1.212	
1.2399999999999977e-13	1e-15	0.0	0.0	0.0	1.218	
1.2499999999999977e-13	1e-15	0.0	0.0	0.0	1.225	
1.2599999999999977e-13	1e-15	0.0	0.0	0.0	1.231	
1.2699999999999976e-13	1e-15	0.0	0.0	0.0	1.237	
1.2799999999999976e-13	1e-15	0.0	0.0	0.0	1.244	
1.2899999999999975e-13	1e-15	0.0	0.0	0.0	1.250	
1.2999999999999975e-13	1e-15	0.0	0.0	0.0	1.257	
1.3099999999999974e-13	1e-15	0.0	0.0	0.0	1.263	
1.3199999999999974e-13	1e-15	0.0	0.0	0.0	1.269	
1.3299999999999974e-13	1e-15	0.0	0.0	0.0	1.276	
1.3399999999999973e-13	1e-15	0.0	0.0	0.0	1.282	
1.3499999999999973e-13	1e-15	0.0	0.0	0.0	1.288	
1.3599999999999972e-13	1e-15	0.0	0.0	0.0	1.295	
1.3699999999999972e-13	1e-15	0.0	0.0	0.0	1.301	
1.3799999999999971e-13	1e-15	0.0	0.0	0.0	1.307	
1.389999999999997e-13	1e-15	0.0	0.0	0.0	1.314	
1.399999999999997e-13	1e-15	0.0	0.0	0.0	1.320	
1.409999999999997e-13	1e-15	0.0	0.0	0.0	1.327	
1.419999999999997e-13	1e-15	0.0	0.0	0.0	1.333	
1.429999999999997e-13	1e-15	0.0	0.0	0.0	1.339	
1.439999999999997e-13	1e-15	0.0	0.0	0.0	1.346	
1.4499999999999969e-13	1e-15	0.0	0.0	0.0	1.352	
1.4599999999999968e-13	1e-15	0.0	0.0	0.0	1.358	
1.4699999999999968e-13	1e-15	0.0	0.0	0.0	1.365	
1.4799999999999967e-13	1e-15	0.0	0.0	0.0	1.371	
1.4899999999999967e-13	1e-15	0.0	0.0	0.0	1.377	
1.4999999999999966e-13	1e-15	0.0	0.0	0.0	1.384	
1.5099999999999966e-13	1e-15	0.0	0.0	0.0	1.390	
1.5199999999999966e-13	1e-15	0.0	0.0	0.0	1.397	
1.5299999999999965e-13	1e-15	0.0	0.0	0.0	1.403	
1.5399999999999965e-13	1e-15	0.0	0.0	0.0	1.409	
1.5499999999999964e-13	1e-15	0.0	0.0	0.0	1.416	
1.5599999999999964e-13	1e-15	0.0	0.0	0.0	1.422	
1.5699999999999963e-13	1e-15	0.0	0.0	0.0	1.428	
1.5799999999999963e-13	1e-15	0.0	0.0	0.0	1.435	
1.5899999999999963e-13	1e-15	0.0	0.0	0.0	1.441	
1.5999999999999962e-13	1e-15	0.0	0.0	0.0	1.448	
1.6099999999999962e-13	1e-15	0.0	0.0	0.0	1.454	
1.6199999999999961e-13	1e-15	0.0	0.0	0.0	1.460	
1.629999999999996e-13	1e-15	0.0	0.0	0.0	1.467	
1.639999999999996e-13	1e-15	0.0	0.0	0.0	1.473	
1.649999999999996e-13	1e-15	0.0	0.0	0.0	1.479	
1.659999999999996e-13	1e-15	0.0	0.0	0.0	1.486	
1.669999999999996e-13	1e-15	0.0	0.0	0.0	1.492	
1.6799999999999959e-13	1e-15	0.0	0.0	0.0	1.498	
1.6899999999999958e-13	1e-15	0.0	0.0	0.0	1.505	
1.6999999999999958e-13	1e-15	0.0	0.0	0.0	1.511	
1.7099999999999957e-13	1e-15	0.0	0.0	0.0	1.518	
1.7199999999999957e-13	1e-15	0.0	0.0	0.0	1.524	
1.7299999999999957e-13	1e-15	0.0	0.0	0.0	1.530	
1.7399999999999956e-13	1e-15	0.0	0.0	0.0	1.537	
1.7499999999999956e-13	1e-15	0.0	0.0	0.0	1.543	
1.7599999999999955e-13	1e-15	0.0	0.0	0.0	1.549	
1.7699999999999955e-13	1e-15	0.0	0.0	0.0	1.556	
1.7799999999999954e-13	1e-15	0.0	0.0	0.0	1.562	
1.7899999999999954e-13	1e-15	0.0	0.0	0.0	1.568	
1.7999999999999954e-13	1e-15	0.0	0.0	0.0	1.575	
1.8099999999999953e-13	1e-15	0.0	0.0	0.0	1.581	
1.8199999999999953e-13	1e-15	0.0	0.0	0.0	1.588	
1.8299999999999952e-13	1e-15	0.0	0.0	0.0	1.594	
1.8399999999999952e-13	1e-15	0.0	0.0	0.0	1.600	
1.8499999999999951e-13	1e-15	0.0	0.0	0.0	1.607	
1.859999999999995e-13	1e-15	0.0	0.0	0.0	1.613	
1.869999999999995e-13	1e-15	0.0	0.0	0.0	1.619	
1.879999999999995e-13	1e-15	0.0	0.0	0.0	1.626	
1.889999999999995e-13	1e-15	0.0	0.0	0.0	1.632	
1.899999999999995e-13	1e-15	0.0	0.0	0.0	1.639	
1.909999999999995e-13	1e-15	0.0	0.0	0.0	1.645	
1.9199999999999948e-13	1e-15	0.0	0.0	0.0	1.651	
1.9299999999999948e-13	1e-15	0.0	0.0	0.0	1.658	
1.9399999999999948e-13	1e-15	0.0	0.0	0.0	1.664	
1.9499999999999947e-13	1e-15	0.0	0.0	0.0	1.670	
1.9599999999999947e-13	1e-15	0.0	0.0	0.0	1.677	
1.9699999999999946e-13	1e-15	0.0	0.0	0.0	1.683	
1.9799999999999946e-13	1e-15	0.0	0.0	0.0	1.689	
1.9899999999999945e-13	1e-15	0.0	0.0	0.0	1.696	
1.9999999999999945e-13	1e-15	0.0	0.0	0.0	1.708	
2.0099999999999945e-13	1e-15	0.0	0.0	0.0	1.709	
2.0199999999999944e-13	1e-15	0.0	0.0	0.0	1.715	
2.0299999999999944e-13	1e-15	0.0	0.0	0.0	1.721	
2.0399999999999943e-13	1e-15	0.0	0.0	0.0	1.728	
2.0499999999999943e-13	1e-15	0.0	0.0	0.0	1.734	
2.0599999999999943e-13	1e-15	0.0	0.0	0.0	1.740	
2.0699999999999942e-13	1e-15	0.0	0.0	0.0	1.747	
2.0799999999999942e-13	1e-15	0.0	0.0	0.0	1.753	
2.089999999999994e-13	1e-15	0.0	0.0	0.0	1.759	
2.099999999999994e-13	1e-15	0.0	0.0	0.0	1.766	
2.109999999999994e-13	1e-15	0.0	0.0	0.0	1.772	
2.119999999999994e-13	1e-15	0.0	0.0	0.0	1.779	
2.129999999999994e-13	1e-15	0.0	0.0	0.0	1.785	
2.139999999999994e-13	1e-15	0.0	0.0	0.0	1.791	
2.1499999999999939e-13	1e-15	0.0	0.0	0.0	1.798	
2.1599999999999938e-13	1e-15	0.0	0.0	0.0	1.806	
2.1699999999999938e-13	1e-15	0.0	0.0	0.0	1.812	
2.1799999999999937e-13	1e-15	0.0	0.0	0.0	1.819	
2.1899999999999937e-13	1e-15	0.0	0.0	0.0	1.825	
2.1999999999999937e-13	1e-15	0.0	0.0	0.0	1.832	
2.2099999999999936e-13	1e-15	0.0	0.0	0.0	1.838	
2.2199999999999936e-13	1e-15	0.0	0.0	0.0	1.844	
2.2299999999999935e-13	1e-15	0.0	0.0	0.0	1.851	
2.2399999999999935e-13	1e-15	0.0	0.0	0.0	1.857	
2.2499999999999934e-13	1e-15	0.0	0.0	0.0	1.864	
2.2599999999999934e-13	1e-15	0.0	0.0	0.0	1.870	
2.2699999999999934e-13	1e-15	0.0	0.0	0.0	1.876	
2.2799999999999933e-13	1e-15	0.0	0.0	0.0	1.883	
2.2899999999999933e-13	1e-15	0.0	0.0	0.0	1.889	
2.299999999999993e-13	1e-15	0.0	0.0	0.0	1.896	
2.309999999999993e-13	1e-15	0.0	0.0	0.0	1.902	
2.319999999999993e-13	1e-15	0.0	0.0	0.0	1.908	
2.329999999999993e-13	1e-15	0.0	0.0	0.0	1.915	
2.339999999999993e-13	1e-15	0.0	0.0	0.0	1.921	
2.349999999999993e-13	1e-15	0.0	0.0	0.0	1.928	
2.359999999999993e-13	1e-15	0.0	0.0	0.0	1.934	
2.369999999999993e-13	1e-15	0.0	0.0	0.0	1.940	
2.379999999999993e-13	1e-15	0.0	0.0	0.0	1.947	
2.389999999999993e-13	1e-15	0.0	0.0	0.0	1.953	
2.399999999999993e-13	1e-15	0.0	0.0	0.0	1.960	
2.409999999999993e-13	1e-15	0.0	0.0	0.0	1.966	
2.4199999999999927e-13	1e-15	0.0	0.0	0.0	1.973	
2.4299999999999927e-13	1e-15	0.0	0.0	0.0	1.979	
2.4399999999999926e-13	1e-15	0.0	0.0	0.0	1.985	
2.4499999999999926e-13	1e-15	0.0	0.0	0.0	1.992	
2.4599999999999925e-13	1e-15	0.0	0.0	0.0	1.998	
2.4699999999999925e-13	1e-15	0.0	0.0	0.0	2.005	
2.4799999999999925e-13	1e-15	0.0	0.0	0.0	2.011	
2.4899999999999924e-13	1e-15	0.0	0.0	0.0	2.017	
2.4999999999999924e-13	1e-15	0.0	0.0	0.0	2.024	
2.5099999999999923e-13	1e-15	0.0	0.0	0.0	2.030	
2.5199999999999923e-13	1e-15	0.0	0.0	0.0	2.037	
2.529999999999992e-13	1e-15	0.0	0.0	0.0	2.043	
2.539999999999992e-13	1e-15	0.0	0.0	0.0	2.049	
2.549999999999992e-13	1e-15	0.0	0.0	0.0	2.056	
2.559999999999992e-13	1e-15	0.0	0.0	0.0	2.062	
2.569999999999992e-13	1e-15	0.0	0.0	0.0	2.069	
2.579999999999992e-13	1e-15	0.0	0.0	0.0	2.075	
2.589999999999992e-13	1e-15	0.0	0.0	0.0	2.081	
2.599999999999992e-13	1e-15	0.0	0.0	0.0	2.088	
2.609999999999992e-13	1e-15	0.0	0.0	0.0	2.094	
2.619999999999992e-13	1e-15	0.0	0.0	0.0	2.101	
2.629999999999992e-13	1e-15	0.0	0.0	0.0	2.107	
2.639999999999992e-13	1e-15	0.0	0.0	0.0	2.113	
2.6499999999999917e-13	1e-15	0.0	0.0	0.0	2.120	
2.6599999999999917e-13	1e-15	0.0	0.0	0.0	2.126	
2.6699999999999917e-13	1e-15	0.0	0.0	0.0	2.133	
2.6799999999999916e-13	1e-15	0.0	0.0	0.0	2.139	
2.6899999999999916e-13	1e-15	0.0	0.0	0.0	2.145	
2.6999999999999915e-13	1e-15	0.0	0.0	0.0	2.152	
2.7099999999999915e-13	1e-15	0.0	0.0	0.0	2.158	
2.7199999999999914e-13	1e-15	0.0	0.0	0.0	2.165	
2.7299999999999914e-13	1e-15	0.0	0.0	0.0	2.171	
2.7399999999999914e-13	1e-15	0.0	0.0	0.0	2.177	
2.7499999999999913e-13	1e-15	0.0	0.0	0.0	2.184	
2.7599999999999913e-13	1e-15	0.0	0.0	0.0	2.190	
2.769999999999991e-13	1e-15	0.0	0.0	0.0	2.197	
2.779999999999991e-13	1e-15	0.0	0.0	0.0	2.203	
2.789999999999991e-13	1e-15	0.0	0.0	0.0	2.209	
2.799999999999991e-13	1e-15	0.0	0.0	0.0	2.216	
2.809999999999991e-13	1e-15	0.0	0.0	0.0	2.222	
2.819999999999991e-13	1e-15	0.0	0.0	0.0	2.229	
2.829999999999991e-13	1e-15	0.0	0.0	0.0	2.235	
2.839999999999991e-13	1e-15	0.0	0.0	0.0	2.241	
2.849999999999991e-13	1e-15	0.0	0.0	0.0	2.248	
2.859999999999991e-13	1e-15	0.0	0.0	0.0	2.254	
2.869999999999991e-13	1e-15	0.0	0.0	0.0	2.261	
2.879999999999991e-13	1e-15	0.0	0.0	0.0	2.267	
2.8899999999999907e-13	1e-15	0.0	0.0	0.0	2.273	
2.8999999999999907e-13	1e-15	0.0	0.0	0.0	2.280	
2.9099999999999906e-13	1e-15	0.0	0.0	0.0	2.286	
2.9199999999999906e-13	1e-15	0.0	0.0	0.0	2.293	
2.9299999999999905e-13	1e-15	0.0	0.0	0.0	2.299	
2.9399999999999905e-13	1e-15	0.0	0.0	0.0	2.305	
2.9499999999999905e-13	1e-15	0.0	0.0	0.0	2.312	
2.9599999999999904e-13	1e-15	0.0	0.0	0.0	2.318	
2.9699999999999904e-13	1e-15	0.0	0.0	0.0	2.325	
2.9799999999999903e-13	1e-15	0.0	0.0	0.0	2.331	
2.9899999999999903e-13	1e-15	0.0	0.0	0.0	2.337	
2.99999999999999e-13	1e-15	0.0	0.0	0.0	2.350	
3.00999999999999e-13	1e-15	0.0	0.0	0.0	2.350	
3.01999999999999e-13	1e-15	0.0	0.0	0.0	2.357	
3.02999999999999e-13	1e-15	0.0	0.0	0.0	2.363	
3.03999999999999e-13	1e-15	0.0	0.0	0.0	2.370	
3.04999999999999e-13	1e-15	0.0	0.0	0.0	2.376	
3.05999999999999e-13	1e-15	0.0	0.0	0.0	2.382	
3.06999999999999e-13	1e-15	0.0	0.0	0.0	2.389	
3.07999999999999e-13	1e-15	0.0	0.0	0.0	2.395	
3.08999999999999e-13	1e-15	0.0	0.0	0.0	2.402	
3.09999999999999e-13	1e-15	0.0	0.0	0.0	2.408	
3.10999999999999e-13	1e-15	0.0	0.0	0.0	2.415	
3.1199999999999897e-13	1e-15	0.0	0.0	0.0	2.421	
3.1299999999999897e-13	1e-15	0.0	0.0	0.0	2.427	
3.1399999999999896e-13	1e-15	0.0	0.0	0.0	2.434	
3.1499999999999896e-13	1e-15	0.0	0.0	0.0	2.440	
3.1599999999999896e-13	1e-15	0.0	0.0	0.0	2.447	
3.1699999999999895e-13	1e-15	0.0	0.0	0.0	2.453	
3.1799999999999895e-13	1e-15	0.0	0.0	0.0	2.459	
3.1899999999999894e-13	1e-15	0.0	0.0	0.0	2.466	
3.1999999999999894e-13	1e-15	0.0	0.0	0.0	2.472	
3.2099999999999894e-13	1e-15	0.0	0.0	0.0	2.479	
3.2199999999999893e-13	1e-15	0.0	0.0	0.0	2.485	
3.2299999999999893e-13	1e-15	0.0	0.0	0.0	2.491	
3.239999999999989e-13	1e-15	0.0	0.0	0.0	2.498	
3.249999999999989e-13	1e-15	0.0	0.0	0.0	2.504	
3.259999999999989e-13	1e-15	0.0	0.0	0.0	2.511	
3.269999999999989e-13	1e-15	0.0	0.0	0.0	2.517	
3.279999999999989e-13	1e-15	0.0	0.0	0.0	2.523	
3.289999999999989e-13	1e-15	0.0	0.0	0.0	2.530	
3.299999999999989e-13	1e-15	0.0	0.0	0.0	2.536	
3.309999999999989e-13	1e-15	0.0	0.0	0.0	2.543	
3.319999999999989e-13	1e-15	0.0	0.0	0.0	2.549	
3.329999999999989e-13	1e-15	0.0	0.0	0.0	2.555	
3.339999999999989e-13	1e-15	0.0	0.0	0.0	2.562	
3.349999999999989e-13	1e-15	0.0	0.0	0.0	2.568	
3.3599999999999887e-13	1e-15	0.0	0.0	0.0	2.575	
3.3699999999999887e-13	1e-15	0.0	0.0	0.0	2.581	
3.3799999999999886e-13	1e-15	0.0	0.0	0.0	2.587	
3.3899999999999886e-13	1e-15	0.0	0.0	0.0	2.594	
3.3999999999999885e-13	1e-15	0.0	0.0	0.0	2.600	
3.4099999999999885e-13	1e-15	0.0	0.0	0.0	2.607	
3.4199999999999885e-13	1e-15	0.0	0.0	0.0	2.613	
3.4299999999999884e-13	1e-15	0.0	0.0	0.0	2.619	
3.4399999999999884e-13	1e-15	0.0	0.0	0.0	2.626	
3.4499999999999883e-13	1e-15	0.0	0.0	0.0	2.632	
3.4599999999999883e-13	1e-15	0.0	0.0	0.0	2.639	
3.469999999999988e-13	1e-15	0.0	0.0	0.0	2.645	
3.479999999999988e-13	1e-15	0.0	0.0	0.0	2.652	
3.489999999999988e-13	1e-15	0.0	0.0	0.0	2.658	
3.499999999999988e-13	1e-15	0.0	0.0	0.0	2.664	
3.509999999999988e-13	1e-15	0.0	0.0	0.0	2.671	
3.519999999999988e-13	1e-15	0.0	0.0	0.0	2.677	
3.529999999999988e-13	1e-15	0.0	0.0	0.0	2.683	
3.539999999999988e-13	1e-15	0.0	0.0	0.0	2.690	
3.549999999999988e-13	1e-15	0.0	0.0	0.0	2.696	
3.559999999999988e-13	1e-15	0.0	0.0	0.0	2.703	
3.569999999999988e-13	1e-15	0.0	0.0	0.0	2.709	
3.579999999999988e-13	1e-15	0.0	0.0	0.0	2.716	
3.5899999999999877e-13	1e-15	0.0	0.0	0.0	2.722	
3.5999999999999877e-13	1e-15	0.0	0.0	0.0	2.728	
3.6099999999999876e-13	1e-15	0.0	0.0	0.0	2.735	
3.6199999999999876e-13	1e-15	0.0	0.0	0.0	2.741	
3.6299999999999876e-13	1e-15	0.0	0.0	0.0	2.748	
3.6399999999999875e-13	1e-15	0.0	0.0	0.0	2.754	
3.6499999999999875e-13	1e-15	0.0	0.0	0.0	2.760	
3.6599999999999874e-13	1e-15	0.0	0.0	0.0	2.767	
3.6699999999999874e-13	1e-15	0.0	0.0	0.0	2.773	
3.6799999999999873e-13	1e-15	0.0	0.0	0.0	2.780	
3.6899999999999873e-13	1e-15	0.0	0.0	0.0	2.786	
3.6999999999999873e-13	1e-15	0.0	0.0	0.0	2.792	
3.709999999999987e-13	1e-15	0.0	0.0	0.0	2.799	
3.719999999999987e-13	1e-15	0.0	0.0	0.0	2.805	
3.729999999999987e-13	1e-15	0.0	0.0	0.0	2.812	
3.739999999999987e-13	1e-15	0.0	0.0	0.0	2.818	
3.749999999999987e-13	1e-15	0.0	0.0	0.0	2.824	
3.759999999999987e-13	1e-15	0.0	0.0	0.0	2.831	
3.769999999999987e-13	1e-15	0.0	0.0	0.0	2.837	
3.779999999999987e-13	1e-15	0.0	0.0	0.0	2.844	
3.789999999999987e-13	1e-15	0.0	0.0	0.0	2.850	
3.799999999999987e-13	1e-15	0.0	0.0	0.0	2.857	
3.809999999999987e-13	1e-15	0.0	0.0	0.0	2.863	
3.819999999999987e-13	1e-15	0.0	0.0	0.0	2.869	
3.8299999999999867e-13	1e-15	0.0	0.0	0.0	2.876	
3.8399999999999867e-13	1e-15	0.0	0.0	0.0	2.882	
3.8499999999999866e-13	1e-15	0.0	0.0	0.0	2.889	
3.8599999999999866e-13	1e-15	0.0	0.0	0.0	2.895	
3.8699999999999865e-13	1e-15	0.0	0.0	0.0	2.901	
3.8799999999999865e-13	1e-15	0.0	0.0	0.0	2.908	
3.8899999999999865e-13	1e-15	0.0	0.0	0.0	2.914	
3.8999999999999864e-13	1e-15	0.0	0.0	0.0	2.921	
3.9099999999999864e-13	1e-15	0.0	0.0	0.0	2.927	
3.9199999999999863e-13	1e-15	0.0	0.0	0.0	2.934	
3.9299999999999863e-13	1e-15	0.0	0.0	0.0	2.940	
3.939999999999986e-13	1e-15	0.0	0.0	0.0	2.946	
3.949999999999986e-13	1e-15	0.0	0.0	0.0	2.953	
3.959999999999986e-13	1e-15	0.0	0.0	0.0	2.959	
3.969999999999986e-13	1e-15	0.0	0.0	0.0	2.966	
3.979999999999986e-13	1e-15	0.0	0.0	0.0	2.972	
3.989999999999986e-13	1e-15	0.0	0.0	0.0	2.978	
3.999999999999986e-13	1e-15	0.0	0.0	0.0	2.991	
4.009999999999986e-13	1e-15	0.0	0.0	0.0	2.991	
4.019999999999986e-13	1e-15	0.0	0.0	0.0	2.998	
4.029999999999986e-13	1e-15	0.0	0.0	0.0	3.004	
4.039999999999986e-13	1e-15	0.0	0.0	0.0	3.011	
4.049999999999986e-13	1e-15	0.0	0.0	0.0	3.017	
4.0599999999999857e-13	1e-15	0.0	0.0	0.0	3.023	
4.0699999999999857e-13	1e-15	0.0	0.0	0.0	3.030	
4.0799999999999856e-13	1e-15	0.0	0.0	0.0	3.036	
4.0899999999999856e-13	1e-15	0.0	0.0	0.0	3.043	
4.0999999999999856e-13	1e-15	0.0	0.0	0.0	3.049	
4.1099999999999855e-13	1e-15	0.0	0.0	0.0	3.055	
# Table End
