# ODT 1.0
# Table Start
# Title: (no title)
#
## Generated by magnum.DataTableStepHandler.
## Number of columns: 6
#
# Columns:   {time}                    {step size}               {average magn. x}         {average magn. y}         {average magn. z}         {wall clock time}         
# Units:     {s}                       {s}                       {A/m}                     {A/m}                     {A/m}                     {s}                       
1.0099999999999986e-13	1e-15	0.0	0.0	1.8548020159979912e-23	0.702	
1.0199999999999986e-13	1e-15	0.0	0.0	1.8548020159979912e-23	0.708	
1.0299999999999985e-13	1e-15	0.0	0.0	1.8548020159979912e-23	0.714	
1.0399999999999985e-13	1e-15	0.0	0.0	1.8548020159979912e-23	0.721	
1.0499999999999984e-13	1e-15	0.0	0.0	1.8548020159979912e-23	0.727	
1.0599999999999984e-13	1e-15	0.0	0.0	1.8548020159979912e-23	0.733	
1.0699999999999983e-13	1e-15	0.0	0.0	1.8548020159979912e-23	0.739	
1.0799999999999983e-13	1e-15	0.0	0.0	1.8548020159979912e-23	0.745	
1.0899999999999983e-13	1e-15	0.0	0.0	1.8548020159979912e-23	0.752	
1.0999999999999982e-13	1e-15	0.0	0.0	1.8548020159979912e-23	0.758	
1.1099999999999982e-13	1e-15	0.0	0.0	1.8548020159979912e-23	0.764	
1.1199999999999981e-13	1e-15	0.0	0.0	1.8548020159979912e-23	0.770	
1.1299999999999981e-13	1e-15	0.0	0.0	1.8548020159979912e-23	0.777	
1.1399999999999982e-13	1e-15	0.0	0.0	1.8548020159979912e-23	0.783	
1.1499999999999981e-13	1e-15	0.0	0.0	1.8548020159979912e-23	0.789	
1.159999999999998e-13	1e-15	0.0	0.0	1.8548020159979912e-23	0.795	
1.169999999999998e-13	1e-15	0.0	0.0	1.8548020159979912e-23	0.801	
1.179999999999998e-13	1e-15	0.0	0.0	1.8548020159979912e-23	0.808	
1.189999999999998e-13	1e-15	0.0	0.0	1.8548020159979912e-23	0.814	
1.199999999999998e-13	1e-15	0.0	0.0	1.8548020159979912e-23	0.820	
1.2099999999999979e-13	1e-15	0.0	0.0	1.8548020159979912e-23	0.826	
1.2199999999999978e-13	1e-15	0.0	0.0	1.8548020159979912e-23	0.833	
1.2299999999999978e-13	1e-15	0.0	0.0	1.8548020159979912e-23	0.839	
1.2399999999999977e-13	1e-15	0.0	0.0	1.8548020159979912e-23	0.845	
1.2499999999999977e-13	1e-15	0.0	0.0	1.8548020159979912e-23	0.851	
1.2599999999999977e-13	1e-15	0.0	0.0	1.8548020159979912e-23	0.858	
1.2699999999999976e-13	1e-15	0.0	0.0	1.8548020159979912e-23	0.864	
1.2799999999999976e-13	1e-15	0.0	0.0	1.8548020159979912e-23	0.870	
1.2899999999999975e-13	1e-15	0.0	0.0	1.8548020159979912e-23	0.876	
1.2999999999999975e-13	1e-15	0.0	0.0	1.8548020159979912e-23	0.882	
1.3099999999999974e-13	1e-15	0.0	0.0	1.8548020159979912e-23	0.889	
1.3199999999999974e-13	1e-15	0.0	0.0	1.8548020159979912e-23	0.895	
1.3299999999999974e-13	1e-15	0.0	0.0	1.8548020159979912e-23	0.901	
1.3399999999999973e-13	1e-15	0.0	0.0	1.8548020159979912e-23	0.907	
1.3499999999999973e-13	1e-15	0.0	0.0	1.8548020159979912e-23	0.914	
1.3599999999999972e-13	1e-15	0.0	0.0	1.8548020159979912e-23	0.920	
1.3699999999999972e-13	1e-15	0.0	0.0	1.8548020159979912e-23	0.926	
1.3799999999999971e-13	1e-15	0.0	0.0	1.8548020159979912e-23	0.932	
1.389999999999997e-13	1e-15	0.0	0.0	1.8548020159979912e-23	0.938	
1.399999999999997e-13	1e-15	0.0	0.0	1.8548020159979912e-23	0.945	
1.409999999999997e-13	1e-15	0.0	0.0	1.8548020159979912e-23	0.951	
1.419999999999997e-13	1e-15	0.0	0.0	1.8548020159979912e-23	0.957	
1.429999999999997e-13	1e-15	0.0	0.0	1.8548020159979912e-23	0.963	
1.439999999999997e-13	1e-15	0.0	0.0	1.8548020159979912e-23	0.970	
1.4499999999999969e-13	1e-15	0.0	0.0	1.8548020159979912e-23	0.976	
1.4599999999999968e-13	1e-15	0.0	0.0	1.8548020159979912e-23	0.982	
1.4699999999999968e-13	1e-15	0.0	0.0	1.8548020159979912e-23	0.988	
1.4799999999999967e-13	1e-15	0.0	0.0	1.8548020159979912e-23	0.995	
1.4899999999999967e-13	1e-15	0.0	0.0	1.8548020159979912e-23	1.001	
1.4999999999999966e-13	1e-15	0.0	0.0	1.8548020159979912e-23	1.007	
1.5099999999999966e-13	1e-15	0.0	0.0	1.8548020159979912e-23	1.013	
1.5199999999999966e-13	1e-15	0.0	0.0	1.8548020159979912e-23	1.020	
1.5299999999999965e-13	1e-15	0.0	0.0	1.8548020159979912e-23	1.026	
1.5399999999999965e-13	1e-15	0.0	0.0	1.8548020159979912e-23	1.032	
1.5499999999999964e-13	1e-15	0.0	0.0	1.8548020159979912e-23	1.038	
1.5599999999999964e-13	1e-15	0.0	0.0	1.8548020159979912e-23	1.044	
1.5699999999999963e-13	1e-15	0.0	0.0	1.8548020159979912e-23	1.051	
1.5799999999999963e-13	1e-15	0.0	0.0	1.8548020159979912e-23	1.057	
1.5899999999999963e-13	1e-15	0.0	0.0	1.8548020159979912e-23	1.063	
1.5999999999999962e-13	1e-15	0.0	0.0	1.8548020159979912e-23	1.069	
1.6099999999999962e-13	1e-15	0.0	0.0	1.8548020159979912e-23	1.076	
1.6199999999999961e-13	1e-15	0.0	0.0	1.8548020159979912e-23	1.082	
1.629999999999996e-13	1e-15	0.0	0.0	1.8548020159979912e-23	1.088	
1.639999999999996e-13	1e-15	0.0	0.0	1.8548020159979912e-23	1.094	
1.649999999999996e-13	1e-15	0.0	0.0	1.8548020159979912e-23	1.101	
1.659999999999996e-13	1e-15	0.0	0.0	1.8548020159979912e-23	1.107	
1.669999999999996e-13	1e-15	0.0	0.0	1.8548020159979912e-23	1.113	
1.6799999999999959e-13	1e-15	0.0	0.0	1.8548020159979912e-23	1.119	
1.6899999999999958e-13	1e-15	0.0	0.0	1.8548020159979912e-23	1.125	
1.6999999999999958e-13	1e-15	0.0	0.0	1.8548020159979912e-23	1.132	
1.7099999999999957e-13	1e-15	0.0	0.0	1.8548020159979912e-23	1.138	
1.7199999999999957e-13	1e-15	0.0	0.0	1.8548020159979912e-23	1.144	
1.7299999999999957e-13	1e-15	0.0	0.0	1.8548020159979912e-23	1.150	
1.7399999999999956e-13	1e-15	0.0	0.0	1.8548020159979912e-23	1.157	
1.7499999999999956e-13	1e-15	0.0	0.0	1.8548020159979912e-23	1.163	
1.7599999999999955e-13	1e-15	0.0	0.0	1.8548020159979912e-23	1.169	
1.7699999999999955e-13	1e-15	0.0	0.0	1.8548020159979912e-23	1.175	
1.7799999999999954e-13	1e-15	0.0	0.0	1.8548020159979912e-23	1.182	
1.7899999999999954e-13	1e-15	0.0	0.0	1.8548020159979912e-23	1.188	
1.7999999999999954e-13	1e-15	0.0	0.0	1.8548020159979912e-23	1.194	
1.8099999999999953e-13	1e-15	0.0	0.0	1.8548020159979912e-23	1.200	
1.8199999999999953e-13	1e-15	0.0	0.0	1.8548020159979912e-23	1.206	
1.8299999999999952e-13	1e-15	0.0	0.0	1.8548020159979912e-23	1.213	
1.8399999999999952e-13	1e-15	0.0	0.0	1.8548020159979912e-23	1.219	
1.8499999999999951e-13	1e-15	0.0	0.0	1.8548020159979912e-23	1.225	
1.859999999999995e-13	1e-15	0.0	0.0	1.8548020159979912e-23	1.231	
1.869999999999995e-13	1e-15	0.0	0.0	1.8548020159979912e-23	1.238	
1.879999999999995e-13	1e-15	0.0	0.0	1.8548020159979912e-23	1.244	
1.889999999999995e-13	1e-15	0.0	0.0	1.8548020159979912e-23	1.250	
1.899999999999995e-13	1e-15	0.0	0.0	1.8548020159979912e-23	1.256	
1.909999999999995e-13	1e-15	0.0	0.0	1.8548020159979912e-23	1.263	
1.9199999999999948e-13	1e-15	0.0	0.0	1.8548020159979912e-23	1.269	
1.9299999999999948e-13	1e-15	0.0	0.0	1.8548020159979912e-23	1.275	
1.9399999999999948e-13	1e-15	0.0	0.0	1.8548020159979912e-23	1.281	
1.9499999999999947e-13	1e-15	0.0	0.0	1.8548020159979912e-23	1.288	
1.9599999999999947e-13	1e-15	0.0	0.0	1.8548020159979912e-23	1.294	
1.9699999999999946e-13	1e-15	0.0	0.0	1.8548020159979912e-23	1.300	
1.9799999999999946e-13	1e-15	0.0	0.0	1.8548020159979912e-23	1.306	
1.9899999999999945e-13	1e-15	0.0	0.0	1.8548020159979912e-23	1.312	
1.9999999999999945e-13	1e-15	0.0	0.0	1.8548020159979912e-23	1.324	
2.0099999999999945e-13	1e-15	0.0	0.0	1.8548020159979912e-23	1.325	
2.0199999999999944e-13	1e-15	0.0	0.0	1.8548020159979912e-23	1.332	
2.0299999999999944e-13	1e-15	0.0	0.0	1.8548020159979912e-23	1.338	
2.0399999999999943e-13	1e-15	0.0	0.0	1.8548020159979912e-23	1.344	
2.0499999999999943e-13	1e-15	0.0	0.0	1.8548020159979912e-23	1.350	
2.0599999999999943e-13	1e-15	0.0	0.0	1.8548020159979912e-23	1.357	
2.0699999999999942e-13	1e-15	0.0	0.0	1.8548020159979912e-23	1.363	
2.0799999999999942e-13	1e-15	0.0	0.0	1.8548020159979912e-23	1.369	
2.089999999999994e-13	1e-15	0.0	0.0	1.8548020159979912e-23	1.375	
2.099999999999994e-13	1e-15	0.0	0.0	1.8548020159979912e-23	1.381	
2.109999999999994e-13	1e-15	0.0	0.0	1.8548020159979912e-23	1.388	
2.119999999999994e-13	1e-15	0.0	0.0	1.8548020159979912e-23	1.394	
2.129999999999994e-13	1e-15	0.0	0.0	1.8548020159979912e-23	1.400	
2.139999999999994e-13	1e-15	0.0	0.0	1.8548020159979912e-23	1.406	
2.1499999999999939e-13	1e-15	0.0	0.0	1.8548020159979912e-23	1.413	
2.1599999999999938e-13	1e-15	0.0	0.0	1.8548020159979912e-23	1.419	
2.1699999999999938e-13	1e-15	0.0	0.0	1.8548020159979912e-23	1.425	
2.1799999999999937e-13	1e-15	0.0	0.0	1.8548020159979912e-23	1.431	
2.1899999999999937e-13	1e-15	0.0	0.0	1.8548020159979912e-23	1.438	
2.1999999999999937e-13	1e-15	0.0	0.0	1.8548020159979912e-23	1.444	
2.2099999999999936e-13	1e-15	0.0	0.0	1.8548020159979912e-23	1.450	
2.2199999999999936e-13	1e-15	0.0	0.0	1.8548020159979912e-23	1.456	
2.2299999999999935e-13	1e-15	0.0	0.0	1.8548020159979912e-23	1.462	
2.2399999999999935e-13	1e-15	0.0	0.0	1.8548020159979912e-23	1.469	
2.2499999999999934e-13	1e-15	0.0	0.0	1.8548020159979912e-23	1.475	
2.2599999999999934e-13	1e-15	0.0	0.0	1.8548020159979912e-23	1.481	
2.2699999999999934e-13	1e-15	0.0	0.0	1.8548020159979912e-23	1.487	
2.2799999999999933e-13	1e-15	0.0	0.0	1.8548020159979912e-23	1.494	
2.2899999999999933e-13	1e-15	0.0	0.0	1.8548020159979912e-23	1.500	
2.299999999999993e-13	1e-15	0.0	0.0	1.8548020159979912e-23	1.506	
2.309999999999993e-13	1e-15	0.0	0.0	1.8548020159979912e-23	1.512	
2.319999999999993e-13	1e-15	0.0	0.0	1.8548020159979912e-23	1.519	
2.329999999999993e-13	1e-15	0.0	0.0	1.8548020159979912e-23	1.525	
2.339999999999993e-13	1e-15	0.0	0.0	1.8548020159979912e-23	1.531	
2.349999999999993e-13	1e-15	0.0	0.0	1.8548020159979912e-23	1.537	
2.359999999999993e-13	1e-15	0.0	0.0	1.8548020159979912e-23	1.544	
2.369999999999993e-13	1e-15	0.0	0.0	1.8548020159979912e-23	1.550	
2.379999999999993e-13	1e-15	0.0	0.0	1.8548020159979912e-23	1.556	
2.389999999999993e-13	1e-15	0.0	0.0	1.8548020159979912e-23	1.562	
2.399999999999993e-13	1e-15	0.0	0.0	1.8548020159979912e-23	1.569	
2.409999999999993e-13	1e-15	0.0	0.0	1.8548020159979912e-23	1.575	
2.4199999999999927e-13	1e-15	0.0	0.0	1.8548020159979912e-23	1.581	
2.4299999999999927e-13	1e-15	0.0	0.0	1.8548020159979912e-23	1.587	
2.4399999999999926e-13	1e-15	0.0	0.0	1.8548020159979912e-23	1.593	
2.4499999999999926e-13	1e-15	0.0	0.0	1.8548020159979912e-23	1.600	
2.4599999999999925e-13	1e-15	0.0	0.0	1.8548020159979912e-23	1.606	
2.4699999999999925e-13	1e-15	0.0	0.0	1.8548020159979912e-23	1.612	
2.4799999999999925e-13	1e-15	0.0	0.0	1.8548020159979912e-23	1.618	
2.4899999999999924e-13	1e-15	0.0	0.0	1.8548020159979912e-23	1.625	
2.4999999999999924e-13	1e-15	0.0	0.0	1.8548020159979912e-23	1.631	
2.5099999999999923e-13	1e-15	0.0	0.0	1.8548020159979912e-23	1.637	
2.5199999999999923e-13	1e-15	0.0	0.0	1.8548020159979912e-23	1.643	
2.529999999999992e-13	1e-15	0.0	0.0	1.8548020159979912e-23	1.649	
2.539999999999992e-13	1e-15	0.0	0.0	1.8548020159979912e-23	1.656	
2.549999999999992e-13	1e-15	0.0	0.0	1.8548020159979912e-23	1.662	
2.559999999999992e-13	1e-15	0.0	0.0	1.8548020159979912e-23	1.668	
2.569999999999992e-13	1e-15	0.0	0.0	1.8548020159979912e-23	1.674	
2.579999999999992e-13	1e-15	0.0	0.0	1.8548020159979912e-23	1.681	
2.589999999999992e-13	1e-15	0.0	0.0	1.8548020159979912e-23	1.687	
2.599999999999992e-13	1e-15	0.0	0.0	1.8548020159979912e-23	1.693	
2.609999999999992e-13	1e-15	0.0	0.0	1.8548020159979912e-23	1.699	
2.619999999999992e-13	1e-15	0.0	0.0	1.8548020159979912e-23	1.705	
2.629999999999992e-13	1e-15	0.0	0.0	1.8548020159979912e-23	1.712	
2.639999999999992e-13	1e-15	0.0	0.0	1.8548020159979912e-23	1.718	
2.6499999999999917e-13	1e-15	0.0	0.0	1.8548020159979912e-23	1.724	
2.6599999999999917e-13	1e-15	0.0	0.0	1.8548020159979912e-23	1.730	
2.6699999999999917e-13	1e-15	0.0	0.0	1.8548020159979912e-23	1.737	
2.6799999999999916e-13	1e-15	0.0	0.0	1.8548020159979912e-23	1.743	
2.6899999999999916e-13	1e-15	0.0	0.0	1.8548020159979912e-23	1.749	
2.6999999999999915e-13	1e-15	0.0	0.0	1.8548020159979912e-23	1.755	
2.7099999999999915e-13	1e-15	0.0	0.0	1.8548020159979912e-23	1.762	
2.7199999999999914e-13	1e-15	0.0	0.0	1.8548020159979912e-23	1.768	
2.7299999999999914e-13	1e-15	0.0	0.0	1.8548020159979912e-23	1.774	
2.7399999999999914e-13	1e-15	0.0	0.0	1.8548020159979912e-23	1.780	
2.7499999999999913e-13	1e-15	0.0	0.0	1.8548020159979912e-23	1.786	
2.7599999999999913e-13	1e-15	0.0	0.0	1.8548020159979912e-23	1.793	
2.769999999999991e-13	1e-15	0.0	0.0	1.8548020159979912e-23	1.799	
2.779999999999991e-13	1e-15	0.0	0.0	1.8548020159979912e-23	1.805	
2.789999999999991e-13	1e-15	0.0	0.0	1.8548020159979912e-23	1.811	
2.799999999999991e-13	1e-15	0.0	0.0	1.8548020159979912e-23	1.817	
2.809999999999991e-13	1e-15	0.0	0.0	1.8548020159979912e-23	1.824	
2.819999999999991e-13	1e-15	0.0	0.0	1.8548020159979912e-23	1.830	
2.829999999999991e-13	1e-15	0.0	0.0	1.8548020159979912e-23	1.836	
2.839999999999991e-13	1e-15	0.0	0.0	1.8548020159979912e-23	1.842	
2.849999999999991e-13	1e-15	0.0	0.0	1.8548020159979912e-23	1.849	
2.859999999999991e-13	1e-15	0.0	0.0	1.8548020159979912e-23	1.855	
2.869999999999991e-13	1e-15	0.0	0.0	1.8548020159979912e-23	1.861	
2.879999999999991e-13	1e-15	0.0	0.0	1.8548020159979912e-23	1.867	
2.8899999999999907e-13	1e-15	0.0	0.0	1.8548020159979912e-23	1.874	
2.8999999999999907e-13	1e-15	0.0	0.0	1.8548020159979912e-23	1.880	
2.9099999999999906e-13	1e-15	0.0	0.0	1.8548020159979912e-23	1.886	
2.9199999999999906e-13	1e-15	0.0	0.0	1.8548020159979912e-23	1.892	
2.9299999999999905e-13	1e-15	0.0	0.0	1.8548020159979912e-23	1.899	
2.9399999999999905e-13	1e-15	0.0	0.0	1.8548020159979912e-23	1.905	
2.9499999999999905e-13	1e-15	0.0	0.0	1.8548020159979912e-23	1.911	
2.9599999999999904e-13	1e-15	0.0	0.0	1.8548020159979912e-23	1.917	
2.9699999999999904e-13	1e-15	0.0	0.0	1.8548020159979912e-23	1.923	
2.9799999999999903e-13	1e-15	0.0	0.0	1.8548020159979912e-23	1.930	
2.9899999999999903e-13	1e-15	0.0	0.0	1.8548020159979912e-23	1.936	
2.99999999999999e-13	1e-15	0.0	0.0	1.8548020159979912e-23	1.948	
3.00999999999999e-13	1e-15	0.0	0.0	1.8548020159979912e-23	1.949	
3.01999999999999e-13	1e-15	0.0	0.0	1.8548020159979912e-23	1.955	
3.02999999999999e-13	1e-15	0.0	0.0	1.8548020159979912e-23	1.961	
3.03999999999999e-13	1e-15	0.0	0.0	1.8548020159979912e-23	1.968	
3.04999999999999e-13	1e-15	0.0	0.0	1.8548020159979912e-23	1.974	
3.05999999999999e-13	1e-15	0.0	0.0	1.8548020159979912e-23	1.980	
3.06999999999999e-13	1e-15	0.0	0.0	1.8548020159979912e-23	1.986	
3.07999999999999e-13	1e-15	0.0	0.0	1.8548020159979912e-23	1.993	
3.08999999999999e-13	1e-15	0.0	0.0	1.8548020159979912e-23	1.999	
3.09999999999999e-13	1e-15	0.0	0.0	1.8548020159979912e-23	2.006	
3.10999999999999e-13	1e-15	0.0	0.0	1.8548020159979912e-23	2.012	
3.1199999999999897e-13	1e-15	0.0	0.0	1.8548020159979912e-23	2.019	
3.1299999999999897e-13	1e-15	0.0	0.0	1.8548020159979912e-23	2.025	
3.1399999999999896e-13	1e-15	0.0	0.0	1.8548020159979912e-23	2.031	
3.1499999999999896e-13	1e-15	0.0	0.0	1.8548020159979912e-23	2.038	
3.1599999999999896e-13	1e-15	0.0	0.0	1.8548020159979912e-23	2.044	
3.1699999999999895e-13	1e-15	0.0	0.0	1.8548020159979912e-23	2.050	
3.1799999999999895e-13	1e-15	0.0	0.0	1.8548020159979912e-23	2.056	
3.1899999999999894e-13	1e-15	0.0	0.0	1.8548020159979912e-23	2.063	
3.1999999999999894e-13	1e-15	0.0	0.0	1.8548020159979912e-23	2.069	
3.2099999999999894e-13	1e-15	0.0	0.0	1.8548020159979912e-23	2.075	
3.2199999999999893e-13	1e-15	0.0	0.0	1.8548020159979912e-23	2.082	
3.2299999999999893e-13	1e-15	0.0	0.0	1.8548020159979912e-23	2.088	
3.239999999999989e-13	1e-15	0.0	0.0	1.8548020159979912e-23	2.094	
3.249999999999989e-13	1e-15	0.0	0.0	1.8548020159979912e-23	2.100	
3.259999999999989e-13	1e-15	0.0	0.0	1.8548020159979912e-23	2.107	
3.269999999999989e-13	1e-15	0.0	0.0	1.8548020159979912e-23	2.113	
3.279999999999989e-13	1e-15	0.0	0.0	1.8548020159979912e-23	2.119	
3.289999999999989e-13	1e-15	0.0	0.0	1.8548020159979912e-23	2.125	
3.299999999999989e-13	1e-15	0.0	0.0	1.8548020159979912e-23	2.132	
3.309999999999989e-13	1e-15	0.0	0.0	1.8548020159979912e-23	2.138	
3.319999999999989e-13	1e-15	0.0	0.0	1.8548020159979912e-23	2.144	
3.329999999999989e-13	1e-15	0.0	0.0	1.8548020159979912e-23	2.150	
3.339999999999989e-13	1e-15	0.0	0.0	1.8548020159979912e-23	2.157	
3.349999999999989e-13	1e-15	0.0	0.0	1.8548020159979912e-23	2.163	
3.3599999999999887e-13	1e-15	0.0	0.0	1.8548020159979912e-23	2.169	
3.3699999999999887e-13	1e-15	0.0	0.0	1.8548020159979912e-23	2.175	
3.3799999999999886e-13	1e-15	0.0	0.0	1.8548020159979912e-23	2.182	
3.3899999999999886e-13	1e-15	0.0	0.0	1.8548020159979912e-23	2.188	
3.3999999999999885e-13	1e-15	0.0	0.0	1.8548020159979912e-23	2.194	
3.4099999999999885e-13	1e-15	0.0	0.0	1.8548020159979912e-23	2.201	
3.4199999999999885e-13	1e-15	0.0	0.0	1.8548020159979912e-23	2.207	
3.4299999999999884e-13	1e-15	0.0	0.0	1.8548020159979912e-23	2.213	
3.4399999999999884e-13	1e-15	0.0	0.0	1.8548020159979912e-23	2.219	
3.4499999999999883e-13	1e-15	0.0	0.0	1.8548020159979912e-23	2.225	
3.4599999999999883e-13	1e-15	0.0	0.0	1.8548020159979912e-23	2.232	
3.469999999999988e-13	1e-15	0.0	0.0	1.8548020159979912e-23	2.238	
3.479999999999988e-13	1e-15	0.0	0.0	1.8548020159979912e-23	2.244	
3.489999999999988e-13	1e-15	0.0	0.0	1.8548020159979912e-23	2.250	
3.499999999999988e-13	1e-15	0.0	0.0	1.8548020159979912e-23	2.257	
3.509999999999988e-13	1e-15	0.0	0.0	1.8548020159979912e-23	2.263	
3.519999999999988e-13	1e-15	0.0	0.0	1.8548020159979912e-23	2.269	
3.529999999999988e-13	1e-15	0.0	0.0	1.8548020159979912e-23	2.275	
3.539999999999988e-13	1e-15	0.0	0.0	1.8548020159979912e-23	2.282	
3.549999999999988e-13	1e-15	0.0	0.0	1.8548020159979912e-23	2.288	
3.559999999999988e-13	1e-15	0.0	0.0	1.8548020159979912e-23	2.294	
3.569999999999988e-13	1e-15	0.0	0.0	1.8548020159979912e-23	2.300	
3.579999999999988e-13	1e-15	0.0	0.0	1.8548020159979912e-23	2.307	
3.5899999999999877e-13	1e-15	0.0	0.0	1.8548020159979912e-23	2.313	
3.5999999999999877e-13	1e-15	0.0	0.0	1.8548020159979912e-23	2.319	
3.6099999999999876e-13	1e-15	0.0	0.0	1.8548020159979912e-23	2.325	
3.6199999999999876e-13	1e-15	0.0	0.0	1.8548020159979912e-23	2.332	
3.6299999999999876e-13	1e-15	0.0	0.0	1.8548020159979912e-23	2.338	
3.6399999999999875e-13	1e-15	0.0	0.0	1.8548020159979912e-23	2.344	
3.6499999999999875e-13	1e-15	0.0	0.0	1.8548020159979912e-23	2.350	
3.6599999999999874e-13	1e-15	0.0	0.0	1.8548020159979912e-23	2.357	
3.6699999999999874e-13	1e-15	0.0	0.0	1.8548020159979912e-23	2.363	
3.6799999999999873e-13	1e-15	0.0	0.0	1.8548020159979912e-23	2.369	
3.6899999999999873e-13	1e-15	0.0	0.0	1.8548020159979912e-23	2.375	
3.6999999999999873e-13	1e-15	0.0	0.0	1.8548020159979912e-23	2.382	
3.709999999999987e-13	1e-15	0.0	0.0	1.8548020159979912e-23	2.388	
3.719999999999987e-13	1e-15	0.0	0.0	1.8548020159979912e-23	2.394	
3.729999999999987e-13	1e-15	0.0	0.0	1.8548020159979912e-23	2.401	
3.739999999999987e-13	1e-15	0.0	0.0	1.8548020159979912e-23	2.407	
3.749999999999987e-13	1e-15	0.0	0.0	1.8548020159979912e-23	2.413	
3.759999999999987e-13	1e-15	0.0	0.0	1.8548020159979912e-23	2.419	
3.769999999999987e-13	1e-15	0.0	0.0	1.8548020159979912e-23	2.426	
3.779999999999987e-13	1e-15	0.0	0.0	1.8548020159979912e-23	2.432	
3.789999999999987e-13	1e-15	0.0	0.0	1.8548020159979912e-23	2.438	
3.799999999999987e-13	1e-15	0.0	0.0	1.8548020159979912e-23	2.444	
3.809999999999987e-13	1e-15	0.0	0.0	1.8548020159979912e-23	2.451	
3.819999999999987e-13	1e-15	0.0	0.0	1.8548020159979912e-23	2.457	
3.8299999999999867e-13	1e-15	0.0	0.0	1.8548020159979912e-23	2.463	
3.8399999999999867e-13	1e-15	0.0	0.0	1.8548020159979912e-23	2.469	
3.8499999999999866e-13	1e-15	0.0	0.0	1.8548020159979912e-23	2.475	
3.8599999999999866e-13	1e-15	0.0	0.0	1.8548020159979912e-23	2.482	
3.8699999999999865e-13	1e-15	0.0	0.0	1.8548020159979912e-23	2.488	
3.8799999999999865e-13	1e-15	0.0	0.0	1.8548020159979912e-23	2.494	
3.8899999999999865e-13	1e-15	0.0	0.0	1.8548020159979912e-23	2.500	
3.8999999999999864e-13	1e-15	0.0	0.0	1.8548020159979912e-23	2.507	
3.9099999999999864e-13	1e-15	0.0	0.0	1.8548020159979912e-23	2.513	
3.9199999999999863e-13	1e-15	0.0	0.0	1.8548020159979912e-23	2.519	
3.9299999999999863e-13	1e-15	0.0	0.0	1.8548020159979912e-23	2.525	
3.939999999999986e-13	1e-15	0.0	0.0	1.8548020159979912e-23	2.532	
3.949999999999986e-13	1e-15	0.0	0.0	1.8548020159979912e-23	2.538	
3.959999999999986e-13	1e-15	0.0	0.0	1.8548020159979912e-23	2.544	
3.969999999999986e-13	1e-15	0.0	0.0	1.8548020159979912e-23	2.550	
3.979999999999986e-13	1e-15	0.0	0.0	1.8548020159979912e-23	2.557	
3.989999999999986e-13	1e-15	0.0	0.0	1.8548020159979912e-23	2.563	
3.999999999999986e-13	1e-15	0.0	0.0	1.8548020159979912e-23	2.575	
4.009999999999986e-13	1e-15	0.0	0.0	1.8548020159979912e-23	2.576	
4.019999999999986e-13	1e-15	0.0	0.0	1.8548020159979912e-23	2.582	
4.029999999999986e-13	1e-15	0.0	0.0	1.8548020159979912e-23	2.588	
4.039999999999986e-13	1e-15	0.0	0.0	1.8548020159979912e-23	2.594	
4.049999999999986e-13	1e-15	0.0	0.0	1.8548020159979912e-23	2.601	
4.0599999999999857e-13	1e-15	0.0	0.0	1.8548020159979912e-23	2.607	
4.0699999999999857e-13	1e-15	0.0	0.0	1.8548020159979912e-23	2.613	
4.0799999999999856e-13	1e-15	0.0	0.0	1.8548020159979912e-23	2.619	
4.0899999999999856e-13	1e-15	0.0	0.0	1.8548020159979912e-23	2.626	
4.0999999999999856e-13	1e-15	0.0	0.0	1.8548020159979912e-23	2.632	
4.1099999999999855e-13	1e-15	0.0	0.0	1.8548020159979912e-23	2.638	
4.1199999999999855e-13	1e-15	0.0	0.0	1.8548020159979912e-23	2.644	
4.1299999999999854e-13	1e-15	0.0	0.0	1.8548020159979912e-23	2.651	
4.1399999999999854e-13	1e-15	0.0	0.0	1.8548020159979912e-23	2.657	
4.1499999999999853e-13	1e-15	0.0	0.0	1.8548020159979912e-23	2.663	
4.1599999999999853e-13	1e-15	0.0	0.0	1.8548020159979912e-23	2.669	
4.1699999999999853e-13	1e-15	0.0	0.0	1.8548020159979912e-23	2.676	
4.179999999999985e-13	1e-15	0.0	0.0	1.8548020159979912e-23	2.682	
4.189999999999985e-13	1e-15	0.0	0.0	1.8548020159979912e-23	2.688	
4.199999999999985e-13	1e-15	0.0	0.0	1.8548020159979912e-23	2.694	
4.209999999999985e-13	1e-15	0.0	0.0	1.8548020159979912e-23	2.701	
4.219999999999985e-13	1e-15	0.0	0.0	1.8548020159979912e-23	2.707	
4.229999999999985e-13	1e-15	0.0	0.0	1.8548020159979912e-23	2.713	
4.239999999999985e-13	1e-15	0.0	0.0	1.8548020159979912e-23	2.719	
4.249999999999985e-13	1e-15	0.0	0.0	1.8548020159979912e-23	2.726	
4.259999999999985e-13	1e-15	0.0	0.0	1.8548020159979912e-23	2.732	
4.269999999999985e-13	1e-15	0.0	0.0	1.8548020159979912e-23	2.738	
4.279999999999985e-13	1e-15	0.0	0.0	1.8548020159979912e-23	2.744	
4.289999999999985e-13	1e-15	0.0	0.0	1.8548020159979912e-23	2.751	
4.2999999999999847e-13	1e-15	0.0	0.0	1.8548020159979912e-23	2.757	
4.3099999999999847e-13	1e-15	0.0	0.0	1.8548020159979912e-23	2.763	
4.3199999999999846e-13	1e-15	0.0	0.0	1.8548020159979912e-23	2.769	
4.3299999999999846e-13	1e-15	0.0	0.0	1.8548020159979912e-23	2.776	
4.3399999999999845e-13	1e-15	0.0	0.0	1.8548020159979912e-23	2.782	
4.3499999999999845e-13	1e-15	0.0	0.0	1.8548020159979912e-23	2.788	
4.3599999999999845e-13	1e-15	0.0	0.0	1.8548020159979912e-23	2.794	
4.3699999999999844e-13	1e-15	0.0	0.0	1.8548020159979912e-23	2.801	
4.3799999999999844e-13	1e-15	0.0	0.0	1.8548020159979912e-23	2.807	
4.3899999999999843e-13	1e-15	0.0	0.0	1.8548020159979912e-23	2.813	
4.3999999999999843e-13	1e-15	0.0	0.0	1.8548020159979912e-23	2.819	
4.409999999999984e-13	1e-15	0.0	0.0	1.8548020159979912e-23	2.825	
4.419999999999984e-13	1e-15	0.0	0.0	1.8548020159979912e-23	2.832	
4.429999999999984e-13	1e-15	0.0	0.0	1.8548020159979912e-23	2.838	
4.439999999999984e-13	1e-15	0.0	0.0	1.8548020159979912e-23	2.844	
4.449999999999984e-13	1e-15	0.0	0.0	1.8548020159979912e-23	2.850	
4.459999999999984e-13	1e-15	0.0	0.0	1.8548020159979912e-23	2.857	
4.469999999999984e-13	1e-15	0.0	0.0	1.8548020159979912e-23	2.863	
4.479999999999984e-13	1e-15	0.0	0.0	1.8548020159979912e-23	2.869	
4.489999999999984e-13	1e-15	0.0	0.0	1.8548020159979912e-23	2.875	
4.499999999999984e-13	1e-15	0.0	0.0	1.8548020159979912e-23	2.882	
4.509999999999984e-13	1e-15	0.0	0.0	1.8548020159979912e-23	2.888	
4.519999999999984e-13	1e-15	0.0	0.0	1.8548020159979912e-23	2.894	
4.5299999999999837e-13	1e-15	0.0	0.0	1.8548020159979912e-23	2.900	
4.5399999999999837e-13	1e-15	0.0	0.0	1.8548020159979912e-23	2.907	
4.549999999999984e-13	1e-15	0.0	0.0	1.8548020159979912e-23	2.913	
4.559999999999984e-13	1e-15	0.0	0.0	1.8548020159979912e-23	2.919	
4.569999999999984e-13	1e-15	0.0	0.0	1.8548020159979912e-23	2.925	
4.579999999999984e-13	1e-15	0.0	0.0	1.8548020159979912e-23	2.931	
4.589999999999983e-13	1e-15	0.0	0.0	1.8548020159979912e-23	2.938	
4.599999999999983e-13	1e-15	0.0	0.0	1.8548020159979912e-23	2.944	
4.609999999999983e-13	1e-15	0.0	0.0	1.8548020159979912e-23	2.950	
4.619999999999983e-13	1e-15	0.0	0.0	1.8548020159979912e-23	2.957	
4.629999999999983e-13	1e-15	0.0	0.0	1.8548020159979912e-23	2.963	
4.639999999999983e-13	1e-15	0.0	0.0	1.8548020159979912e-23	2.969	
4.649999999999983e-13	1e-15	0.0	0.0	1.8548020159979912e-23	2.975	
4.659999999999983e-13	1e-15	0.0	0.0	1.8548020159979912e-23	2.982	
4.669999999999983e-13	1e-15	0.0	0.0	1.8548020159979912e-23	2.988	
4.679999999999983e-13	1e-15	0.0	0.0	1.8548020159979912e-23	2.994	
4.689999999999983e-13	1e-15	0.0	0.0	1.8548020159979912e-23	3.000	
4.699999999999983e-13	1e-15	0.0	0.0	1.8548020159979912e-23	3.007	
4.709999999999983e-13	1e-15	0.0	0.0	1.8548020159979912e-23	3.013	
4.719999999999983e-13	1e-15	0.0	0.0	1.8548020159979912e-23	3.019	
4.729999999999983e-13	1e-15	0.0	0.0	1.8548020159979912e-23	3.025	
4.739999999999983e-13	1e-15	0.0	0.0	1.8548020159979912e-23	3.032	
4.749999999999983e-13	1e-15	0.0	0.0	1.8548020159979912e-23	3.038	
4.759999999999983e-13	1e-15	0.0	0.0	1.8548020159979912e-23	3.044	
4.769999999999983e-13	1e-15	0.0	0.0	1.8548020159979912e-23	3.050	
4.779999999999983e-13	1e-15	0.0	0.0	1.8548020159979912e-23	3.057	
4.789999999999983e-13	1e-15	0.0	0.0	1.8548020159979912e-23	3.063	
4.799999999999983e-13	1e-15	0.0	0.0	1.8548020159979912e-23	3.069	
4.809999999999983e-13	1e-15	0.0	0.0	1.8548020159979912e-23	3.075	
4.819999999999982e-13	1e-15	0.0	0.0	1.8548020159979912e-23	3.082	
4.829999999999982e-13	1e-15	0.0	0.0	1.8548020159979912e-23	3.088	
4.839999999999982e-13	1e-15	0.0	0.0	1.8548020159979912e-23	3.094	
4.849999999999982e-13	1e-15	0.0	0.0	1.8548020159979912e-23	3.100	
4.859999999999982e-13	1e-15	0.0	0.0	1.8548020159979912e-23	3.107	
4.869999999999982e-13	1e-15	0.0	0.0	1.8548020159979912e-23	3.113	
4.879999999999982e-13	1e-15	0.0	0.0	1.8548020159979912e-23	3.119	
4.889999999999982e-13	1e-15	0.0	0.0	1.8548020159979912e-23	3.125	
4.899999999999982e-13	1e-15	0.0	0.0	1.8548020159979912e-23	3.131	
4.909999999999982e-13	1e-15	0.0	0.0	1.8548020159979912e-23	3.138	
4.919999999999982e-13	1e-15	0.0	0.0	1.8548020159979912e-23	3.144	
4.929999999999982e-13	1e-15	0.0	0.0	1.8548020159979912e-23	3.150	
4.939999999999982e-13	1e-15	0.0	0.0	1.8548020159979912e-23	3.156	
4.949999999999982e-13	1e-15	0.0	0.0	1.8548020159979912e-23	3.163	
4.959999999999982e-13	1e-15	0.0	0.0	1.8548020159979912e-23	3.169	
4.969999999999982e-13	1e-15	0.0	0.0	1.8548020159979912e-23	3.175	
4.979999999999982e-13	1e-15	0.0	0.0	1.8548020159979912e-23	3.181	
4.989999999999982e-13	1e-15	0.0	0.0	1.8548020159979912e-23	3.188	
4.999999999999982e-13	1e-15	0.0	0.0	1.8548020159979912e-23	3.199	
5.009999999999982e-13	1e-15	0.0	0.0	1.8548020159979912e-23	3.201	
5.019999999999982e-13	1e-15	0.0	0.0	1.8548020159979912e-23	3.207	
5.029999999999982e-13	1e-15	0.0	0.0	1.8548020159979912e-23	3.213	
5.039999999999982e-13	1e-15	0.0	0.0	1.8548020159979912e-23	3.219	
5.049999999999982e-13	1e-15	0.0	0.0	1.8548020159979912e-23	3.226	
5.059999999999981e-13	1e-15	0.0	0.0	1.8548020159979912e-23	3.232	
5.069999999999981e-13	1e-15	0.0	0.0	1.8548020159979912e-23	3.238	
5.079999999999981e-13	1e-15	0.0	0.0	1.8548020159979912e-23	3.245	
5.089999999999981e-13	1e-15	0.0	0.0	1.8548020159979912e-23	3.251	
5.099999999999981e-13	1e-15	0.0	0.0	1.8548020159979912e-23	3.257	
5.109999999999981e-13	1e-15	0.0	0.0	1.8548020159979912e-23	3.263	
5.119999999999981e-13	1e-15	0.0	0.0	1.8548020159979912e-23	3.270	
5.129999999999981e-13	1e-15	0.0	0.0	1.8548020159979912e-23	3.276	
5.139999999999981e-13	1e-15	0.0	0.0	1.8548020159979912e-23	3.282	
5.149999999999981e-13	1e-15	0.0	0.0	1.8548020159979912e-23	3.288	
5.159999999999981e-13	1e-15	0.0	0.0	1.8548020159979912e-23	3.295	
5.169999999999981e-13	1e-15	0.0	0.0	1.8548020159979912e-23	3.301	
5.179999999999981e-13	1e-15	0.0	0.0	1.8548020159979912e-23	3.307	
5.189999999999981e-13	1e-15	0.0	0.0	1.8548020159979912e-23	3.314	
5.199999999999981e-13	1e-15	0.0	0.0	1.8548020159979912e-23	3.320	
5.209999999999981e-13	1e-15	0.0	0.0	1.8548020159979912e-23	3.326	
5.219999999999981e-13	1e-15	0.0	0.0	1.8548020159979912e-23	3.333	
5.229999999999981e-13	1e-15	0.0	0.0	1.8548020159979912e-23	3.339	
5.239999999999981e-13	1e-15	0.0	0.0	1.8548020159979912e-23	3.345	
5.249999999999981e-13	1e-15	0.0	0.0	1.8548020159979912e-23	3.352	
5.259999999999981e-13	1e-15	0.0	0.0	1.8548020159979912e-23	3.358	
5.269999999999981e-13	1e-15	0.0	0.0	1.8548020159979912e-23	3.364	
5.279999999999981e-13	1e-15	0.0	0.0	1.8548020159979912e-23	3.370	
5.28999999999998e-13	1e-15	0.0	0.0	1.8548020159979912e-23	3.377	
5.29999999999998e-13	1e-15	0.0	0.0	1.8548020159979912e-23	3.383	
5.30999999999998e-13	1e-15	0.0	0.0	1.8548020159979912e-23	3.389	
5.31999999999998e-13	1e-15	0.0	0.0	1.8548020159979912e-23	3.396	
5.32999999999998e-13	1e-15	0.0	0.0	1.8548020159979912e-23	3.402	
5.33999999999998e-13	1e-15	0.0	0.0	1.8548020159979912e-23	3.408	
5.34999999999998e-13	1e-15	0.0	0.0	1.8548020159979912e-23	3.415	
5.35999999999998e-13	1e-15	0.0	0.0	1.8548020159979912e-23	3.421	
5.36999999999998e-13	1e-15	0.0	0.0	1.8548020159979912e-23	3.427	
5.37999999999998e-13	1e-15	0.0	0.0	1.8548020159979912e-23	3.433	
5.38999999999998e-13	1e-15	0.0	0.0	1.8548020159979912e-23	3.440	
5.39999999999998e-13	1e-15	0.0	0.0	1.8548020159979912e-23	3.446	
5.40999999999998e-13	1e-15	0.0	0.0	1.8548020159979912e-23	3.452	
5.41999999999998e-13	1e-15	0.0	0.0	1.8548020159979912e-23	3.458	
5.42999999999998e-13	1e-15	0.0	0.0	1.8548020159979912e-23	3.465	
5.43999999999998e-13	1e-15	0.0	0.0	1.8548020159979912e-23	3.471	