# OOMMF: rectangular mesh v1.0
# Segment count: 1
# Begin: Segment
# Begin: Header
# Title: 
# meshunit: m
# valueunit: (none)
# valuemultiplier: 500000.0000000001
# xmin: 0
# ymin: 0
# zmin: 0
# xmax: 5.000000000000001e-07
# ymax: 2e-07
# zmax: 2e-09
# ValueRangeMaxMag: 1
# ValueRangeMinMag: 0
# meshtype: rectangular
# xbase: 1e-09
# ybase: 1e-09
# zbase: 1e-09
# xstepsize: 2e-09
# ystepsize: 2e-09
# zstepsize: 2e-09
# xnodes: 250
# ynodes: 100
# znodes: 1
# End: Header
# Begin: Data Text
0.348324626623821 0.3483049580661516 0.8702606567425137
0.2796826647700843 0.3484085109432351 0.8946446873085547
0.2239051913848009 0.3494598843688884 0.909804514435831
0.1789391811559179 0.3510334290930384 0.9191062512606648
0.1428833143596709 0.3528800681253614 0.9246945528105133
0.1140636385311882 0.3548409577395233 0.927942552680673
0.09106790175842655 0.3568097201286661 0.9297276272602745
0.07273450602140083 0.3587152015409197 0.9306089919065255
0.05812238352287372 0.360511478583472 0.9309421369468559
0.04647549526315548 0.3621714070258407 0.9309521471445065
0.03718972863200953 0.3636814545939215 0.9307807065408727
0.02978347977961198 0.3650380005625557 0.9305160946902039
0.02387357507196037 0.3662441108978836 0.9302125045632862
0.0191551541689075 0.367307433931327 0.9299023223153864
0.01538592272651105 0.368238184273825 0.9296041700770117
0.01237302610066303 0.369048138172975 0.9293279184099509
0.00996326047772244 0.3697494486409567 0.9290780799644134
0.008034475100949439 0.3703542557898377 0.9288558404985175
0.00648965871513912 0.3708740193262186 0.9286605117687389
0.005251333181193741 0.3713195679531202 0.9284902810234084
0.004257973783421434 0.3717006274443025 0.9283428855852621
0.003460320461799424 0.3720260986091749 0.9282158198048218
0.002819312768467664 0.3723037567766938 0.928106655598091
0.002303547416440042 0.3725405831666496 0.9280130427764214
0.001888194285836256 0.3727425303871608 0.9279328859152018
0.001553192363914699 0.3729149024797699 0.9278642482076696
0.001282742119914585 0.3730621325849907 0.927805475196063
0.001063951197826607 0.3731881630938344 0.9277550662402756
0.0008867971886459419 0.3732962130321592 0.9277117822506052
0.0007429507936341368 0.3733891710173329 0.9276744984050747
0.0006260430647369532 0.373469332111139 0.927642315789087
0.0005306585488654854 0.3735387735708273 0.9276144150673309
0.0004527821105790204 0.3735991171002176 0.9275901544811145
0.0003888613932963813 0.3736518567086533 0.9275689401683266
0.0003363739331247548 0.3736981007157347 0.9275503309114981
0.000292953032552198 0.3737389252154844 0.9275338969316942
0.0002570523188975194 0.3737750959406273 0.9275193321859549
0.0002270684122985536 0.3738073594672502 0.9275063376861948
0.0002020617529995821 0.3738362455397927 0.9274947011664051
0.0001809128827850982 0.3738622832666464 0.9274842103352372
0.0001630998377559361 0.373885827338709 0.9274747228435346
0.0001478128343008811 0.3739072456878919 0.9274660909022282
0.0001347967142285188 0.3739267897417393 0.9274582134755629
0.0001234502744916726 0.3739447227953038 0.9274509847175605
0.0001136774002046808 0.373961214737587 0.9274443363078112
0.0001049988810915036 0.3739764562745448 0.9274381915403139
9.744935748434205e-05 0.3739905500978897 0.9274325091030075
9.061546498639359e-05 0.3740036411163992 0.9274272306874068
8.460138943975385e-05 0.3740157979753349 0.9274223286655751
7.904054182268451e-05 0.3740271223309393 0.9274177621295752
7.412549391673297e-05 0.3740376862323459 0.9274135020493092
6.950327423837722e-05 0.3740475474644487 0.9274095251856785
6.539522485419175e-05 0.3740567804076312 0.9274058015532044
6.147552514955918e-05 0.3740654219955733 0.9274023163050829
5.796857375344493e-05 0.3740735324055113 0.9273990451759735
5.458386088956571e-05 0.3740811228291963 0.9273959836895184
5.154193801679479e-05 0.3740882739627126 0.927393099298796
4.856649501716111e-05 0.3740949387482632 0.9273904110158937
4.589014128612279e-05 0.3741012388580459 0.9273878697605279
4.324276627684848e-05 0.3741071127263311 0.9273855003921675
4.088580215355836e-05 0.3741126769198242 0.9273832558851999
3.851361630735055e-05 0.374117854313794 0.9273811673742052
3.640835649183336e-05 0.3741227613607685 0.9273791878763642
3.425344911434487e-05 0.3741273142849558 0.9273773512074935
3.233902685003971e-05 0.3741316342670271 0.9273756084752662
3.035966836309617e-05 0.3741356013456449 0.9273740080916775
2.859469794953078e-05 0.3741393862984448 0.9273724811544527
2.675623219172348e-05 0.3741428321446537 0.9273710910088155
2.513918416621426e-05 0.3741461271777154 0.9273697616840533
2.34269198724579e-05 0.3741491189655461 0.9273685546903585
2.192827512206451e-05 0.3741519766146896 0.9273674017963273
2.031701870906424e-05 0.3741545190777991 0.9273663760568847
1.890880527950535e-05 0.3741569772477555 0.9273653843115343
1.738401887443078e-05 0.3741591150498671 0.927364521815934
1.606616862203367e-05 0.3741611835384601 0.927363687274295
1.463276674356784e-05 0.374162953673344 0.9273629731040164
1.341532431207616e-05 0.3741647007387298 0.9273622682323913
1.207870821887903e-05 0.3741661502264921 0.927361683421733
1.093870000356584e-05 0.3741675792351297 0.9273611068670432
9.652950449549844e-06 0.3741686960137847 0.9273606562875977
8.538663400083989e-06 0.3741697954797811 0.9273602126885268
7.238936611264838e-06 0.3741705141954703 0.9273599227130179
6.097244221774934e-06 0.3741712131775524 0.9273596406961334
4.775762596964856e-06 0.3741715281607738 0.9273595136143387
3.623737229404583e-06 0.3741718297308635 0.9273593919418326
2.330434502972049e-06 0.3741717729491519 0.9273594148563203
1.228528657227496e-06 0.374171743575071 0.9273594267103136
-2.379716424989822e-08 0.374171352774481 0.9273595843915747
-1.079714085944858e-06 0.374171010481864 0.9273597224992115
-2.315067078166426e-06 0.3741702815231241 0.9273600166168187
-3.388613027092036e-06 0.3741695602436268 0.9273603076343132
-4.633971564377865e-06 0.3741684216788688 0.9273607670140407
-5.72361899026294e-06 0.3741672929715313 0.9273612224142197
-6.949545806545412e-06 0.374165760086231 0.9273618408856362
-7.959231215430092e-06 0.3741642689932875 0.9273624424923456
-9.06954972508004e-06 0.3741624108476041 0.9273631921887192
-9.94932232789139e-06 0.3741606392866003 0.9273639069478891
-1.096556075573639e-05 0.3741584589989672 0.9273647866073385
-1.179785270756835e-05 0.3741563267295641 0.9273656468885667
-1.28562588475093e-05 0.3741536838691809 0.9273667131625102
-1.37852814069758e-05 0.3741509910612666 0.9273677995799929
-1.496339155489552e-05 0.3741477414661614 0.9273691106198583
-1.596431031828797e-05 0.3741444510707159 0.9273704381088136
-1.711010894204703e-05 0.3741406665517736 0.9273719649307059
-1.796516331227361e-05 0.3741370059275202 0.9273734417551772
-1.880197930616694e-05 0.3741330207814981 0.9273750494850485
-1.926367162994236e-05 0.3741293164419296 0.9273765439170892
-1.970906829745019e-05 0.3741253524318059 0.9273781430890686
-1.981269773700565e-05 0.3741216841958546 0.9273796229279107
-2.00034055434214e-05 0.3741176944520601 0.9273812324485213
-1.996408929302852e-05 0.3741139066650551 0.927382760483095
-2.009277764250802e-05 0.3741097305090463 0.9273844451653956
-2.002622367560587e-05 0.3741057095709066 0.9273860672154821
-2.009118724012439e-05 0.3741013961484527 0.9273878072285198
-1.985468965381739e-05 0.3740973988045012 0.927389419722641
-1.963697181969234e-05 0.3740932868452647 0.9273910784300738
-1.906545469360829e-05 0.3740897220445656 0.9273925164120786
-1.84268375578306e-05 0.3740861966190898 0.9273939384962114
-1.74622635264524e-05 0.374083323396929 0.9273950974915588
-1.657752421624372e-05 0.3740804972745645 0.927396237475654
-1.5441390018603e-05 0.3740782304329858 0.9273971518598106
-1.44890042419372e-05 0.374075944617364 0.9273980738866646
-1.347693013073716e-05 0.3740741572925838 0.9273987948365122
-1.268738006418792e-05 0.3740722445403322 0.9273995663701745
-1.178189851953932e-05 0.3740708956580968 0.9274001104608173
-1.110883852956065e-05 0.3740695032836267 0.9274006720882478
-1.023840374800215e-05 0.3740687449016566 0.9274009779932701
-9.592048886707247e-06 0.3740680807451988 0.9274012458885288
-8.697507531324564e-06 0.3740682095285854 0.9274011939524508
-7.910966998437742e-06 0.3740684796346438 0.9274010850118962
-6.963443410433532e-06 0.3740695590880486 0.9274006496197762
-6.222418385015563e-06 0.3740707612525865 0.9274001647278219
-5.358174306523784e-06 0.3740726002448971 0.9273994229658065
-4.882676612380775e-06 0.3740743475968066 0.9273987181607393
-4.319802622779955e-06 0.3740766463654189 0.9273977909318849
-4.190570781780138e-06 0.374078519231604 0.9273970354879991
-4.176502765764682e-06 0.3740806215127644 0.9273961875008868
-4.582267903488687e-06 0.3740822067800395 0.9273955480535681
-5.022636202872107e-06 0.3740838405265777 0.9273948890476261
-5.978119177226447e-06 0.374084877858615 0.9273944706120295
-6.968688551091669e-06 0.3740860089403848 0.9273940143577009
-8.257675196877578e-06 0.3740865240395903 0.9273938065696726
-9.488125992863176e-06 0.3740872793577301 0.927393501881864
-1.099284950883496e-05 0.3740875217336742 0.9273934040968346
-1.230732740790966e-05 0.3740880574616788 0.9273931879807382
-1.380079538428625e-05 0.3740881885428302 0.9273931350847285
-1.507571696210451e-05 0.3740885478505844 0.9273929901286526
-1.650516010446176e-05 0.374088422852692 0.9273930405255177
-1.776773582097551e-05 0.3740883842956458 0.9273930560551875
-1.920518380460356e-05 0.3740877498821383 0.9273933119336581
-2.051540144764778e-05 0.3740870232183363 0.9273936050236502
-2.210277136014931e-05 0.3740854710010553 0.9273942311106887
-2.353643748857291e-05 0.3740837730424039 0.9273949159836896
-2.529232167091671e-05 0.3740810816753922 0.9273960015510453
-2.683970597618571e-05 0.3740782332892542 0.927397150447865
-2.866970336711691e-05 0.3740743909145636 0.9273987002578479
-3.024431939059842e-05 0.3740703784818115 0.9274003186476458
-3.199941224980802e-05 0.3740655503591714 0.9274022660154155
-3.348449806881927e-05 0.3740605599653777 0.9274042788111213
-3.506218111663576e-05 0.3740549310548333 0.9274065491057343
-3.631055523136127e-05 0.37404923838722 0.9274088450858573
-3.763435472452838e-05 0.3740430259599459 0.9274113506499594
-3.855991045494087e-05 0.3740368828910932 0.9274138282073692
-3.952616974468038e-05 0.3740302975146694 0.9274164840991178
-4.004729514600898e-05 0.3740239204557955 0.9274190559413206
-4.057798546594586e-05 0.374017122803618 0.9274217973517389
-4.067155394868404e-05 0.3740106835640839 0.927424394183025
-4.073968971032204e-05 0.3740038651037806 0.9274271438920205
-4.040219137225074e-05 0.3739974551487173 0.9274297288258263
-4.004125344091218e-05 0.3739907797849629 0.9274324207361595
-3.930681904450275e-05 0.3739845492651546 0.9274349332249204
-3.85848362181311e-05 0.3739781313797153 0.9274375212168992
-3.750049260709934e-05 0.3739722404857148 0.9274398966724513
-3.647322720417257e-05 0.3739662489691093 0.9274423126543654
-3.510758964680445e-05 0.3739608518358419 0.9274444889381078
-3.383361717728669e-05 0.3739554446036243 0.9274466692519802
-3.222969710805384e-05 0.3739507455519469 0.9274485639982355
-3.077419392667508e-05 0.3739460770956443 0.9274504463731348
-2.900866279639658e-05 0.3739421588079712 0.9274520262657961
-2.745172028878795e-05 0.3739383258532581 0.927453571724464
-2.563203805230938e-05 0.3739352493137464 0.9274548121950009
-2.410902431849446e-05 0.3739322313055943 0.9274560290437353
-2.240021942562872e-05 0.3739299509156549 0.9274569484921905
-2.107189318881792e-05 0.3739277119592721 0.927457851217444
-1.966795953147973e-05 0.3739261244487302 0.9274584912910785
-1.869096293738266e-05 0.373924542132043 0.927459129256912
-1.772291671847301e-05 0.3739235249773637 0.9274595393624461
-1.724264189806849e-05 0.3739224243729712 0.9274599831010124
-1.683373106817237e-05 0.3739217715880282 0.9274602462904248
-1.696409147461e-05 0.3739209509161918 0.9274605771557896
-1.72120820534097e-05 0.3739204080621737 0.927460796011541
-1.804333795192728e-05 0.3739196025807358 0.9274611207378465
-1.903367825041383e-05 0.3739189264590656 0.9274613933061681
-2.061700621634988e-05 0.3739178956207728 0.9274618088684145
-2.240864505589001e-05 0.3739168265496166 0.9274622398356258
-2.481975024528725e-05 0.3739153061800395 0.9274628527268716
-2.750552480150525e-05 0.3739135754789996 0.9274635503975107
-3.088433771954965e-05 0.373911301792223 0.9274644669410266
-3.464030948778086e-05 0.3739085952931336 0.9274655579405436
-3.914355623572123e-05 0.3739052258983975 0.9274669161288988
-4.416297056879951e-05 0.3739012054892298 0.927468536708029
-4.999913606778954e-05 0.3738963112930817 0.9274705094511163
-5.648157535192573e-05 0.3738905765512439 0.9274728209365544
-6.38804120125706e-05 0.3738836116813484 0.9274756281624886
-7.211557024965149e-05 0.3738755899636427 0.9274788612300995
-8.151970591228043e-05 0.3738659175764707 0.9274827594242605
-9.201591370980259e-05 0.3738548933442643 0.9274872022058419
-0.0001041092847865676 0.3738418401988105 0.9274924623294915
-0.0001177750194197375 0.3738269524210228 0.9274984613316911
-0.0001336801407471987 0.3738097045846983 0.9275054107054687
-0.0001520258512018385 0.3737900547287691 0.9275133270600503
-0.0001736692194684285 0.3737675774159405 0.9275223813534746
-0.0001991579283078636 0.3737420379499742 0.9275326675676275
-0.0002296241497826065 0.3737129176505906 0.9275443937913873
-0.0002661214895868127 0.373679840686895 0.9275577102496475
-0.0003102391651149727 0.3736420113875966 0.9275729357187451
-0.0003635655651496767 0.3735988517891538 0.9275903005971471
-0.0004284969943544825 0.3735491056436272 0.9276103072212875
-0.0005074539312718568 0.3734919027671614 0.9276333009642725
-0.0006040345893221173 0.3734255144028929 0.9276599702127656
-0.0007221183044206091 0.3733483492920155 0.9276909445640186
-0.0008670591422524529 0.3732582355389862 0.9277270815335542
-0.0010452752303044 0.3731528127226457 0.9277693063239755
-0.001265021387458002 0.3730291212567859 0.9278187723986182
-0.001536178439372359 0.3728839133068263 0.9278767306882898
-0.001871835668641341 0.3727132032912938 0.9279446989576328
-0.002287696367737033 0.3725126876803491 0.9280242798345804
-0.002803863310906106 0.3722770037812704 0.9281174337367946
-0.003445082733471216 0.372000299518061 0.928226216265966
-0.00424297362232067 0.3716757858468288 0.9283529002432116
-0.005236492741441521 0.3712956488339529 0.928499930156563
-0.006475010478790885 0.3708510235064766 0.9286697974002913
-0.008020104103772623 0.3703323188692952 0.9288647111022439
-0.009949393601745026 0.3697287156030922 0.9290864795192344
-0.01235981854451241 0.3690286990404346 0.9293358134550023
-0.01537349427318482 0.3682200930105202 0.9296115418695896
-0.01914351776980129 0.3672907291058947 0.9299091601012741
-0.0238626212136136 0.3662287499052388 0.9302188334212874
-0.0297728895677685 0.3650238005122105 0.9305220040957692
-0.03717918759451319 0.3636681730017245 0.9307863170220108
-0.04646470571620264 0.3621587782262288 0.9309575986458198
-0.05811104197550626 0.3604992637898924 0.9309475751122972
-0.07272252261388329 0.3587032480636872 0.9306145359563397
-0.09105541823031467 0.3567979723952232 0.9297333583912968
-0.1140508819564731 0.3548295070981762 0.9279484992268782
-0.1428705474585902 0.3528690799023928 0.9247007186748158
-0.1789267125087904 0.3510230782857313 0.9191126318692424
-0.2238931927541163 0.3494502327927067 0.9098111743870213
-0.279671220196741 0.3483994454545025 0.894651795393415
-0.3483138375963233 0.3482962418148273 0.8702684634505543
0.3484272005790452 0.2796616015021149 0.894643993184955
0.2793306977721378 0.2793105333760872 0.9186729490015997
0.2235631655063762 0.2797174062558778 0.9336903574880979
0.1786907375305805 0.2807204886282739 0.9430088162817353
0.1427249083733982 0.28212278111493 0.9487024490881122
0.1139747762487429 0.2837533136542835 0.95209968352545
0.0910282386396455 0.2854810655705006 0.954051581923585
0.07272803007820099 0.2872117828144445 0.9551021021092415
0.0581370493845468 0.2888816344182819 0.9555979723632111
0.04650300471690863 0.2904499054707074 0.9557595529024838
0.03722409776776814 0.2918935323462541 0.9557261806185919
0.02982092021756607 0.2932017344784302 0.955585399436501
0.02391134608088166 0.2943727777926982 0.9553914984042984
0.0191917876304184 0.2954104905297901 0.9551776365537968
0.01542026174539177 0.296322752152959 0.9549633721165433
0.01240476228146925 0.2971192087187263 0.9547598115144448
0.009991942912305577 0.2978108842752604 0.9545725945594834
0.008060320026568578 0.2984086733251465 0.9544041570138906
0.006512552752068033 0.2989235827575722 0.9542548288209119
0.005271692262045066 0.2993656034842626 0.9541239147569864
0.004275774431849873 0.2997443690817871 0.9540099742438591
0.003476068819906122 0.3000681884157374 0.9539114210693026
0.002832968109196219 0.3003449184740203 0.9538264539414524
0.002315634771164594 0.300581083083594 0.9537534536387795
0.001898648480130007 0.3007828248549115 0.9536907713752125
0.001562490841698958 0.3009550533787205 0.9536370454571176
0.001290758744053692 0.3011024484129599 0.9535909235629211
0.001071178616179458 0.301228598070699 0.9535513537721675
0.0008930344975499166 0.3013370013595739 0.9535172856854803
0.0007486437621429346 0.3014302038758576 0.9534879504869873
0.000630961872552995 0.3015107976921995 0.9534625534136768
0.0005352500971733591 0.301580556782599 0.9534405494198529
0.0004567543994154478 0.3016413707506457 0.953421352198014
0.0003926351127115668 0.3016944380035639 0.9534045898333937
0.0003396267914581149 0.3017411600220675 0.9533898242598247
0.0002961308423083768 0.3017823189928328 0.9533768112608109
0.0002597897828164048 0.3018189450391174 0.9533652274573173
0.0002297852738520087 0.3018515423104083 0.9533549148158598
0.0002043763810887551 0.3018808683631267 0.95334563488098
0.000183272505024619 0.3019072104815134 0.9533372974296451
0.0001650898685077139 0.3019311547931304 0.9533297176269191
0.000149885591327054 0.3019528655217804 0.9533228438139383
0.0001365104356180434 0.3019727719179613 0.9533165404969555
0.0001252663577794377 0.3019909736013335 0.9533107762800429
0.0001151551185022379 0.3020077817113723 0.9533054528980069
0.0001066178873506401 0.3020232632781796 0.9533005491823788
9.872605513913134e-05 0.3020376303399954 0.9532959981620429
9.203126748890265e-05 0.3020509424231457 0.9532917809944313
8.568567155936341e-05 0.3020633341032179 0.953287855187725
8.030882760856518e-05 0.3020748622696606 0.9532842027093796
7.505775630083498e-05 0.3020856052113143 0.953280798868018
7.061477189481549e-05 0.3020956548673571 0.9532776145089197
6.617298917719406e-05 0.3021050308286374 0.9532746435152689
6.245589821490546e-05 0.3021138433893134 0.9532718509070734
5.863080378537226e-05 0.3021220582084556 0.9532692476453412
5.545118427606974e-05 0.3021298083419771 0.9532667915313141
5.208056549029706e-05 0.3021370028590434 0.9532645114505044
4.93245824508787e-05 0.3021438454956381 0.9532623427977175
4.633268619148338e-05 0.3021501577598214 0.9532603422040574
4.392546765632856e-05 0.3021561924224996 0.9532584295201854
4.123735579833379e-05 0.3021617262890975 0.9532566755420454
3.911638975266093e-05 0.3021670745541559 0.953254980330704
3.667715840472973e-05 0.3021719301240213 0.9532534412735728
3.478835401840433e-05 0.3021766533773914 0.9532519441068084
3.253961697174678e-05 0.3021808749907028 0.9532506059431729
3.082068132402901e-05 0.3021850370777068 0.9532492866068298
2.87363883319614e-05 0.3021886827883709 0.9532481309548153
2.717785902386607e-05 0.3021923395220254 0.9532469717736156
2.521950514267044e-05 0.302195473319249 0.9532459783651495
2.379254903363661e-05 0.3021986609129145 0.9532449678736077
2.195432363205893e-05 0.3022013316680578 0.9532441212281666
2.06392175819057e-05 0.3022041185026263 0.9532432377594258
1.889657933716614e-05 0.3022063348750686 0.9532425351421833
1.766471079563899e-05 0.3022087130384617 0.9532417812137667
1.600685192543487e-05 0.3022105430757087 0.9532412010596611
1.488123931459341e-05 0.3022125805042738 0.9532405551399376
1.331621554447789e-05 0.3022140212857287 0.9532400983807736
1.228303910060866e-05 0.3022157464864401 0.9532395514375022
1.079937593477421e-05 0.302216870493445 0.9532391950987545
9.82107908339143e-06 0.3022182756258398 0.9532387496221971
8.340345485321082e-06 0.3022190053893656 0.9532385182691165
7.356379487077023e-06 0.3022200553368705 0.9532381853965263
5.850864045759208e-06 0.3022203732383505 0.9532380846176044
4.851554072235671e-06 0.3022210176140864 0.9532378803261902
3.345006859484889e-06 0.3022209088771455 0.9532379148073593
2.358432589104929e-06 0.3022211907104669 0.9532378254559483
8.901510511460166e-07 0.3022207142306891 0.9532379765248021
-3.671417997569786e-08 0.3022206828595877 0.9532379864713126
-1.476325877994825e-06 0.3022198487501829 0.9532382509211622
-2.388544114391534e-06 0.302219457764288 0.9532383748795229
-3.835658442067863e-06 0.3022182410130964 0.953238760638822
-4.781685197164079e-06 0.3022174607764337 0.953239008003229
-6.229825516719839e-06 0.3022157930768521 0.9532395367252231
-7.129225743757612e-06 0.3022146060381552 0.9532399130577655
-8.51079290187348e-06 0.3022125674217596 0.9532405593657428
-9.324821428352386e-06 0.3022110481701967 0.9532410410158169
-1.058662751739148e-05 0.3022086542851373 0.9532417999453704
-1.130660501914522e-05 0.3022068169049866 0.9532423824444213
-1.255028526922933e-05 0.3022040090530684 0.9532432725987332
-1.331635924625828e-05 0.3022016976474156 0.9532440053636289
-1.465111974744548e-05 0.302198315566405 0.9532450775399638
-1.550155988130029e-05 0.3021954029710413 0.9532460008743133
-1.690522211111403e-05 0.3021913948730905 0.9532472714772746
-1.768213510165508e-05 0.3021879710399134 0.9532483568546668
-1.889087999971367e-05 0.3021835618698952 0.9532497545652754
-1.938808395788545e-05 0.3021798840749569 0.9532509204215581
-2.024053014759033e-05 0.3021753591015759 0.9532523548054597
-2.03386610018007e-05 0.302171685692792 0.9532535192444426
-2.084959204165038e-05 0.3021671624292037 0.95325495305022
-2.072619979338507e-05 0.3021634437099971 0.9532561318217363
-2.107728477758717e-05 0.3021587870397878 0.9532576078743833
-2.086570228051798e-05 0.3021548928790974 0.9532588422216933
-2.113900874341179e-05 0.3021500710807048 0.953260370569902
-2.080620745022774e-05 0.3021460614451684 0.9532616414816415
-2.087419819698492e-05 0.3021412556533148 0.9532631647118782
-2.026118470391812e-05 0.3021374984422417 0.9532643555827254
-1.996567201343143e-05 0.3021331301872717 0.953265740098013
-1.896179917476104e-05 0.3021299434754686 0.9532667501260913
-1.830957590242234e-05 0.3021262340341354 0.953267925807383
-1.70463907523223e-05 0.3021237569387478 0.9532687109113759
-1.622851679489721e-05 0.3021207055589261 0.9532696780078611
-1.489429026930265e-05 0.3021188526459175 0.9532702652732193
-1.41330415146261e-05 0.3021163190692625 0.95327106824465
-1.288139703383701e-05 0.3021149671563533 0.9532714967175849
-1.222948975461364e-05 0.3021129776450058 0.9532721272485143
-1.111538272537843e-05 0.3021122088078114 0.9532723709232913
-1.051614015295478e-05 0.3021108853462829 0.9532727903620745
-9.270662240706028e-06 0.3021110056277926 0.9532727522554174
-8.642143777427343e-06 0.3021105209679255 0.9532729058594929
-7.415454141250607e-06 0.3021115572481839 0.9532725774520568
-6.770799995306633e-06 0.3021121168772048 0.9532724000988019
-5.638284952533852e-06 0.3021140083882404 0.9532718006443911
-5.166861259050747e-06 0.302115310944544 0.9532713878356911
-4.197189205421561e-06 0.3021179499629599 0.9532705514661415
-4.149932489710453e-06 0.3021194840122417 0.9532700652821079
-3.676647328317867e-06 0.3021222169228578 0.9532691991395189
-4.037371970752128e-06 0.3021238330289462 0.9532686869396249
-4.125988668588822e-06 0.3021262291663651 0.9532679275170693
-5.03960880318305e-06 0.3021274571599144 0.9532675383147621
-5.560386542915412e-06 0.3021294315548843 0.9532669125472697
-6.840987433639974e-06 0.3021300657829097 0.9532667115258011
-7.746132644677213e-06 0.3021316968845145 0.9532661945530645
-9.347082590753574e-06 0.3021319743813997 0.9532661065877822
-1.04223073227665e-05 0.3021332396781049 0.9532657055475077
-1.212299236813553e-05 0.3021332884522724 0.9532656900686443
-1.325046179007065e-05 0.3021342100016513 0.9532653979722031
-1.494497137884475e-05 0.3021339345831558 0.9532654852400504
-1.613737873827026e-05 0.3021344527198474 0.9532653209989665
-1.783155246261277e-05 0.3021336778657311 0.953265566556016
-1.911377500335686e-05 0.3021335057435335 0.953265621084588
-2.097010974881272e-05 0.3021318849076736 0.953266134761112
-2.234896478133112e-05 0.3021308562666504 0.9532664607506675
-2.440147012066485e-05 0.3021281494128241 0.9532673186136981
-2.584918255409988e-05 0.3021260773175091 0.9532679753020943
-2.799438887282429e-05 0.3021222541710746 0.953269186930377
-2.945491627658995e-05 0.3021190594804549 0.9532701993826583
-3.154846724880203e-05 0.3021142513079818 0.953271723152067
-3.290826025617102e-05 0.302109990815621 0.953273073345949
-3.482894396021722e-05 0.302104357545224 0.953274858547697
-3.598063603598892e-05 0.3020992605962196 0.9532764737748491
-3.768416080977653e-05 0.3020929189319695 0.9532784833987735
-3.851828079088271e-05 0.3020872133042029 0.9532802914539054
-3.989990846563717e-05 0.3020803209758827 0.9532824754956447
-4.036091303431483e-05 0.3020741908202267 0.953284418005089
-4.135566906627091e-05 0.3020668846228917 0.9532867330997159
-4.140672608221528e-05 0.3020605279450558 0.9532887473074656
-4.194303340500868e-05 0.3020529852860098 0.9532911372296458
-4.156098545005144e-05 0.3020465254147959 0.9532931840507058
-4.166803970122612e-05 0.3020389751729436 0.9532955762722556
-4.08581821090803e-05 0.3020325578618825 0.9532976095228693
-4.056503599662406e-05 0.3020251719117925 0.9532999495888637
-3.934912065635349e-05 0.3020190088177431 0.953301902213771
-3.869888352802636e-05 0.3020119657563888 0.9533041335493924
-3.713209106947256e-05 0.3020062435897808 0.9533059464065026
-3.616513529196599e-05 0.3019997973486505 0.9533079885815793
-3.429489564144665e-05 0.3019947342201513 0.9533095925915989
-3.308731689330922e-05 0.3019890191783164 0.9533114030582804
-3.099057570134663e-05 0.3019847996903951 0.9533127397635761
-2.961137698587965e-05 0.3019800242779584 0.9533142525213023
-2.739967904759633e-05 0.3019767174691916 0.9533153000743191
-2.598615946744806e-05 0.3019729078526115 0.9533165068579045
-2.382420155988884e-05 0.301970554536756 0.9533172523484356
-2.254815705844858e-05 0.3019676902619139 0.9533181596557705
-2.062310611832237e-05 0.3019661989680502 0.953318632071919
-1.962848315634401e-05 0.301964194349478 0.9533192670588342
-1.810857605233197e-05 0.3019634564509664 0.9533195008182012
-1.757079882331745e-05 0.3019621544351953 0.9533199132401053
-1.657438798968096e-05 0.3019619671986387 0.9533199725647299
-1.659884352586908e-05 0.3019611484041435 0.9533202319152411
-1.624495879624519e-05 0.3019612201476898 0.9533202091967941
-1.694800183815489e-05 0.3019606040041981 0.9533204043458761
-1.732536147862153e-05 0.3019606756932449 0.9533203816318575
-1.876618089124081e-05 0.3019599372430587 0.9533206155056115
-1.99454612997103e-05 0.3019596823053925 0.9533206962319681
-2.218676175646585e-05 0.3019585515724193 0.9533210543358591
-2.425607703868275e-05 0.3019576742945741 0.9533213321573445
-2.736988306950715e-05 0.3019558415902931 0.9533219125669916
-3.04328318898033e-05 0.3019540018824202 0.9533224951825242
-3.457453444552686e-05 0.301951159607707 0.9533233952946724
-3.88159661738943e-05 0.3019480482710711 0.9533243805959288
-4.415854310760017e-05 0.301943811769491 0.9533257221874027
-4.973630462797874e-05 0.3019390957830035 0.9533272155792269
-5.652336284406097e-05 0.3019329922389666 0.953329148302271
-6.373211564619257e-05 0.3019262412952262 0.9533312859418566
-7.23042670843286e-05 0.3019177611557383 0.9533339710042851
-8.153517659322439e-05 0.3019084172336444 0.9533369293987778
-9.245981754473767e-05 0.3018969212755001 0.9533405689340804
-0.0001044453514633452 0.3018842027567155 0.9533445952105201
-0.0001186387558013614 0.3018690136035198 0.9533494031837874
-0.0001345681368437733 0.301852019946072 0.9533547817816262
-0.0001534845191585695 0.3018322067729087 0.953361051961479
-0.0001752471087207427 0.3018098877622905 0.9533681140762806
-0.0002012829007114158 0.3017841744998471 0.9533762486587545
-0.0002319733751744459 0.3017551417704901 0.9533854312938833
-0.000268970893270922 0.301721735982452 0.9533959941652753
-0.000313258941623115 0.301683903421415 0.9534079527071574
-0.0003671360205637378 0.3016402127931458 0.9534217572707514
-0.0004322041817778936 0.3015904285680012 0.9534374791226292
-0.0005118043077725791 0.3015325751969792 0.9534557379089122
-0.0006085733977929472 0.3014659602601739 0.9534767456224775
-0.0007274213705529458 0.3013883184923025 0.953501207306279
-0.0008728684744246743 0.3012979269305843 0.9535296520444227
-0.00105200588210175 0.3011921624992149 0.9535628844143789
-0.00127242603918561 0.3010684007085982 0.9536016983136834
-0.001545043790746145 0.3009230083990991 0.9536471862569093
-0.001881849511295304 0.3007526364093861 0.9537003252254976
-0.002299435706524038 0.3005523380001444 0.9537625515389446
-0.002817148384527928 0.3003174746241004 0.9538351419980194
-0.003460678111338238 0.3000418995279036 0.9539197462232852
-0.004260523775091994 0.2997190349841954 0.9540180019293681
-0.005256700739775888 0.2993412555748141 0.9541316365199438
-0.006497771224054443 0.2989003117930362 0.9542622189834119
-0.008045934837288729 0.2983864988094332 0.9544112113029906
-0.009977970215803789 0.2977898880130596 0.9545792909483954
-0.0123914145412341 0.2970995155714135 0.9547661130836694
-0.01540757838658643 0.2963044178550842 0.9549692657294371
-0.01917987211987307 0.2953935150395453 0.9551831257816726
-0.02390002314671118 0.2943570588177166 0.9553966248725028
-0.02981002804790246 0.2931871319481122 0.9555902196484761
-0.03721331043872326 0.2918798954957498 0.9557307655043762
-0.04649198622833769 0.290436941587241 0.9557640285018019
-0.05812560639870237 0.2888691368087075 0.9556024464599152