# ODT 1.0
# Table Start
# Title: (no title)
#
## Generated by magnum.DataTableStepHandler.
## Number of columns: 6
#
# Columns:   {time}                    {step size}               {average magn. x}         {average magn. y}         {average magn. z}         {wall clock time}         
# Units:     {s}                       {s}                       {A/m}                     {A/m}                     {A/m}                     {s}                       
1.0099999999999986e-13	1e-15	0.0	0.0	1.7156918648000005e-23	0.493	
1.0199999999999986e-13	1e-15	0.0	0.0	1.7156918648000005e-23	0.494	
1.0299999999999985e-13	1e-15	0.0	0.0	1.7156918648000005e-23	0.496	
1.0399999999999985e-13	1e-15	0.0	0.0	1.7156918648000005e-23	0.497	
1.0499999999999984e-13	1e-15	0.0	0.0	1.7156918648000005e-23	0.499	
1.0599999999999984e-13	1e-15	0.0	0.0	1.7156918648000005e-23	0.500	
1.0699999999999983e-13	1e-15	0.0	0.0	1.7156918648000005e-23	0.502	
1.0799999999999983e-13	1e-15	0.0	0.0	1.7156918648000005e-23	0.503	
1.0899999999999983e-13	1e-15	0.0	0.0	1.7156918648000005e-23	0.505	
1.0999999999999982e-13	1e-15	0.0	0.0	1.7156918648000005e-23	0.506	
1.1099999999999982e-13	1e-15	0.0	0.0	1.7156918648000005e-23	0.508	
1.1199999999999981e-13	1e-15	0.0	0.0	1.7156918648000005e-23	0.510	
1.1299999999999981e-13	1e-15	0.0	0.0	1.7156918648000005e-23	0.511	
1.1399999999999982e-13	1e-15	0.0	0.0	1.7156918648000005e-23	0.513	
1.1499999999999981e-13	1e-15	0.0	0.0	1.7156918648000005e-23	0.514	
1.159999999999998e-13	1e-15	0.0	0.0	1.7156918648000005e-23	0.516	
1.169999999999998e-13	1e-15	0.0	0.0	1.7156918648000005e-23	0.517	
1.179999999999998e-13	1e-15	0.0	0.0	1.7156918648000005e-23	0.519	
1.189999999999998e-13	1e-15	0.0	0.0	1.7156918648000005e-23	0.520	
1.199999999999998e-13	1e-15	0.0	0.0	1.7156918648000005e-23	0.522	
1.2099999999999979e-13	1e-15	0.0	0.0	1.7156918648000005e-23	0.523	
1.2199999999999978e-13	1e-15	0.0	0.0	1.7156918648000005e-23	0.525	
1.2299999999999978e-13	1e-15	0.0	0.0	1.7156918648000005e-23	0.526	
1.2399999999999977e-13	1e-15	0.0	0.0	1.7156918648000005e-23	0.528	
1.2499999999999977e-13	1e-15	0.0	0.0	1.7156918648000005e-23	0.529	
1.2599999999999977e-13	1e-15	0.0	0.0	1.7156918648000005e-23	0.531	
1.2699999999999976e-13	1e-15	0.0	0.0	1.7156918648000005e-23	0.532	
1.2799999999999976e-13	1e-15	0.0	0.0	1.7156918648000005e-23	0.534	
1.2899999999999975e-13	1e-15	0.0	0.0	1.7156918648000005e-23	0.535	
1.2999999999999975e-13	1e-15	0.0	0.0	1.7156918648000005e-23	0.537	
1.3099999999999974e-13	1e-15	0.0	0.0	1.7156918648000005e-23	0.538	
1.3199999999999974e-13	1e-15	0.0	0.0	1.7156918648000005e-23	0.540	
1.3299999999999974e-13	1e-15	0.0	0.0	1.7156918648000005e-23	0.541	
1.3399999999999973e-13	1e-15	0.0	0.0	1.7156918648000005e-23	0.543	
1.3499999999999973e-13	1e-15	0.0	0.0	1.7156918648000005e-23	0.544	
1.3599999999999972e-13	1e-15	0.0	0.0	1.7156918648000005e-23	0.546	
1.3699999999999972e-13	1e-15	0.0	0.0	1.7156918648000005e-23	0.547	
1.3799999999999971e-13	1e-15	0.0	0.0	1.7156918648000005e-23	0.549	
1.389999999999997e-13	1e-15	0.0	0.0	1.7156918648000005e-23	0.551	
1.399999999999997e-13	1e-15	0.0	0.0	1.7156918648000005e-23	0.552	
1.409999999999997e-13	1e-15	0.0	0.0	1.7156918648000005e-23	0.554	
1.419999999999997e-13	1e-15	0.0	0.0	1.7156918648000005e-23	0.555	
1.429999999999997e-13	1e-15	0.0	0.0	1.7156918648000005e-23	0.557	
1.439999999999997e-13	1e-15	0.0	0.0	1.7156918648000005e-23	0.558	
1.4499999999999969e-13	1e-15	0.0	0.0	1.7156918648000005e-23	0.560	
1.4599999999999968e-13	1e-15	0.0	0.0	1.7156918648000005e-23	0.561	
1.4699999999999968e-13	1e-15	0.0	0.0	1.7156918648000005e-23	0.563	
1.4799999999999967e-13	1e-15	0.0	0.0	1.7156918648000005e-23	0.564	
1.4899999999999967e-13	1e-15	0.0	0.0	1.7156918648000005e-23	0.566	
1.4999999999999966e-13	1e-15	0.0	0.0	1.7156918648000005e-23	0.567	
1.5099999999999966e-13	1e-15	0.0	0.0	1.7156918648000005e-23	0.569	
1.5199999999999966e-13	1e-15	0.0	0.0	1.7156918648000005e-23	0.570	
1.5299999999999965e-13	1e-15	0.0	0.0	1.7156918648000005e-23	0.572	
1.5399999999999965e-13	1e-15	0.0	0.0	1.7156918648000005e-23	0.573	
1.5499999999999964e-13	1e-15	0.0	0.0	1.7156918648000005e-23	0.575	
1.5599999999999964e-13	1e-15	0.0	0.0	1.7156918648000005e-23	0.576	
1.5699999999999963e-13	1e-15	0.0	0.0	1.7156918648000005e-23	0.578	
1.5799999999999963e-13	1e-15	0.0	0.0	1.7156918648000005e-23	0.579	
1.5899999999999963e-13	1e-15	0.0	0.0	1.7156918648000005e-23	0.581	
1.5999999999999962e-13	1e-15	0.0	0.0	1.7156918648000005e-23	0.582	
1.6099999999999962e-13	1e-15	0.0	0.0	1.7156918648000005e-23	0.583	
1.6199999999999961e-13	1e-15	0.0	0.0	1.7156918648000005e-23	0.585	
1.629999999999996e-13	1e-15	0.0	0.0	1.7156918648000005e-23	0.586	
1.639999999999996e-13	1e-15	0.0	0.0	1.7156918648000005e-23	0.588	
1.649999999999996e-13	1e-15	0.0	0.0	1.7156918648000005e-23	0.589	
1.659999999999996e-13	1e-15	0.0	0.0	1.7156918648000005e-23	0.591	
1.669999999999996e-13	1e-15	0.0	0.0	1.7156918648000005e-23	0.592	
1.6799999999999959e-13	1e-15	0.0	0.0	1.7156918648000005e-23	0.594	
1.6899999999999958e-13	1e-15	0.0	0.0	1.7156918648000005e-23	0.595	
1.6999999999999958e-13	1e-15	0.0	0.0	1.7156918648000005e-23	0.597	
1.7099999999999957e-13	1e-15	0.0	0.0	1.7156918648000005e-23	0.598	
1.7199999999999957e-13	1e-15	0.0	0.0	1.7156918648000005e-23	0.600	
1.7299999999999957e-13	1e-15	0.0	0.0	1.7156918648000005e-23	0.601	
1.7399999999999956e-13	1e-15	0.0	0.0	1.7156918648000005e-23	0.603	
1.7499999999999956e-13	1e-15	0.0	0.0	1.7156918648000005e-23	0.604	
1.7599999999999955e-13	1e-15	0.0	0.0	1.7156918648000005e-23	0.605	
1.7699999999999955e-13	1e-15	0.0	0.0	1.7156918648000005e-23	0.607	
1.7799999999999954e-13	1e-15	0.0	0.0	1.7156918648000005e-23	0.608	
1.7899999999999954e-13	1e-15	0.0	0.0	1.7156918648000005e-23	0.610	
1.7999999999999954e-13	1e-15	0.0	0.0	1.7156918648000005e-23	0.611	
1.8099999999999953e-13	1e-15	0.0	0.0	1.7156918648000005e-23	0.613	
1.8199999999999953e-13	1e-15	0.0	0.0	1.7156918648000005e-23	0.614	
1.8299999999999952e-13	1e-15	0.0	0.0	1.7156918648000005e-23	0.616	
1.8399999999999952e-13	1e-15	0.0	0.0	1.7156918648000005e-23	0.617	
1.8499999999999951e-13	1e-15	0.0	0.0	1.7156918648000005e-23	0.619	
1.859999999999995e-13	1e-15	0.0	0.0	1.7156918648000005e-23	0.620	
1.869999999999995e-13	1e-15	0.0	0.0	1.7156918648000005e-23	0.622	
1.879999999999995e-13	1e-15	0.0	0.0	1.7156918648000005e-23	0.623	
1.889999999999995e-13	1e-15	0.0	0.0	1.7156918648000005e-23	0.625	
1.899999999999995e-13	1e-15	0.0	0.0	1.7156918648000005e-23	0.626	
1.909999999999995e-13	1e-15	0.0	0.0	1.7156918648000005e-23	0.628	
1.9199999999999948e-13	1e-15	0.0	0.0	1.7156918648000005e-23	0.629	
1.9299999999999948e-13	1e-15	0.0	0.0	1.7156918648000005e-23	0.630	
1.9399999999999948e-13	1e-15	0.0	0.0	1.7156918648000005e-23	0.632	
1.9499999999999947e-13	1e-15	0.0	0.0	1.7156918648000005e-23	0.633	
1.9599999999999947e-13	1e-15	0.0	0.0	1.7156918648000005e-23	0.635	
1.9699999999999946e-13	1e-15	0.0	0.0	1.7156918648000005e-23	0.636	
1.9799999999999946e-13	1e-15	0.0	0.0	1.7156918648000005e-23	0.638	
1.9899999999999945e-13	1e-15	0.0	0.0	1.7156918648000005e-23	0.639	
1.9999999999999945e-13	1e-15	0.0	0.0	1.7156918648000005e-23	0.642	
2.0099999999999945e-13	1e-15	0.0	0.0	1.7156918648000005e-23	0.642	
2.0199999999999944e-13	1e-15	0.0	0.0	1.7156918648000005e-23	0.644	
2.0299999999999944e-13	1e-15	0.0	0.0	1.7156918648000005e-23	0.645	
2.0399999999999943e-13	1e-15	0.0	0.0	1.7156918648000005e-23	0.647	
2.0499999999999943e-13	1e-15	0.0	0.0	1.7156918648000005e-23	0.648	
2.0599999999999943e-13	1e-15	0.0	0.0	1.7156918648000005e-23	0.650	
2.0699999999999942e-13	1e-15	0.0	0.0	1.7156918648000005e-23	0.651	
2.0799999999999942e-13	1e-15	0.0	0.0	1.7156918648000005e-23	0.653	
2.089999999999994e-13	1e-15	0.0	0.0	1.7156918648000005e-23	0.654	
2.099999999999994e-13	1e-15	0.0	0.0	1.7156918648000005e-23	0.656	
2.109999999999994e-13	1e-15	0.0	0.0	1.7156918648000005e-23	0.657	
2.119999999999994e-13	1e-15	0.0	0.0	1.7156918648000005e-23	0.658	
2.129999999999994e-13	1e-15	0.0	0.0	1.7156918648000005e-23	0.660	
2.139999999999994e-13	1e-15	0.0	0.0	1.7156918648000005e-23	0.661	
2.1499999999999939e-13	1e-15	0.0	0.0	1.7156918648000005e-23	0.663	
2.1599999999999938e-13	1e-15	0.0	0.0	1.7156918648000005e-23	0.664	
2.1699999999999938e-13	1e-15	0.0	0.0	1.7156918648000005e-23	0.666	
2.1799999999999937e-13	1e-15	0.0	0.0	1.7156918648000005e-23	0.667	
2.1899999999999937e-13	1e-15	0.0	0.0	1.7156918648000005e-23	0.669	
2.1999999999999937e-13	1e-15	0.0	0.0	1.7156918648000005e-23	0.670	
2.2099999999999936e-13	1e-15	0.0	0.0	1.7156918648000005e-23	0.672	
2.2199999999999936e-13	1e-15	0.0	0.0	1.7156918648000005e-23	0.673	
2.2299999999999935e-13	1e-15	0.0	0.0	1.7156918648000005e-23	0.675	
2.2399999999999935e-13	1e-15	0.0	0.0	1.7156918648000005e-23	0.676	
2.2499999999999934e-13	1e-15	0.0	0.0	1.7156918648000005e-23	0.678	
2.2599999999999934e-13	1e-15	0.0	0.0	1.7156918648000005e-23	0.679	
2.2699999999999934e-13	1e-15	0.0	0.0	1.7156918648000005e-23	0.680	
2.2799999999999933e-13	1e-15	0.0	0.0	1.7156918648000005e-23	0.682	
2.2899999999999933e-13	1e-15	0.0	0.0	1.7156918648000005e-23	0.683	
2.299999999999993e-13	1e-15	0.0	0.0	1.7156918648000005e-23	0.685	
2.309999999999993e-13	1e-15	0.0	0.0	1.7156918648000005e-23	0.686	
2.319999999999993e-13	1e-15	0.0	0.0	1.7156918648000005e-23	0.688	
2.329999999999993e-13	1e-15	0.0	0.0	1.7156918648000005e-23	0.689	
2.339999999999993e-13	1e-15	0.0	0.0	1.7156918648000005e-23	0.691	
2.349999999999993e-13	1e-15	0.0	0.0	1.7156918648000005e-23	0.692	
2.359999999999993e-13	1e-15	0.0	0.0	1.7156918648000005e-23	0.694	
2.369999999999993e-13	1e-15	0.0	0.0	1.7156918648000005e-23	0.695	
2.379999999999993e-13	1e-15	0.0	0.0	1.7156918648000005e-23	0.697	
2.389999999999993e-13	1e-15	0.0	0.0	1.7156918648000005e-23	0.698	
2.399999999999993e-13	1e-15	0.0	0.0	1.7156918648000005e-23	0.700	
2.409999999999993e-13	1e-15	0.0	0.0	1.7156918648000005e-23	0.701	
2.4199999999999927e-13	1e-15	0.0	0.0	1.7156918648000005e-23	0.703	
2.4299999999999927e-13	1e-15	0.0	0.0	1.7156918648000005e-23	0.704	
2.4399999999999926e-13	1e-15	0.0	0.0	1.7156918648000005e-23	0.705	
2.4499999999999926e-13	1e-15	0.0	0.0	1.7156918648000005e-23	0.707	
2.4599999999999925e-13	1e-15	0.0	0.0	1.7156918648000005e-23	0.708	
2.4699999999999925e-13	1e-15	0.0	0.0	1.7156918648000005e-23	0.710	
2.4799999999999925e-13	1e-15	0.0	0.0	1.7156918648000005e-23	0.711	
2.4899999999999924e-13	1e-15	0.0	0.0	1.7156918648000005e-23	0.713	
2.4999999999999924e-13	1e-15	0.0	0.0	1.7156918648000005e-23	0.714	
2.5099999999999923e-13	1e-15	0.0	0.0	1.7156918648000005e-23	0.716	
2.5199999999999923e-13	1e-15	0.0	0.0	1.7156918648000005e-23	0.717	
2.529999999999992e-13	1e-15	0.0	0.0	1.7156918648000005e-23	0.719	
2.539999999999992e-13	1e-15	0.0	0.0	1.7156918648000005e-23	0.720	
2.549999999999992e-13	1e-15	0.0	0.0	1.7156918648000005e-23	0.722	
2.559999999999992e-13	1e-15	0.0	0.0	1.7156918648000005e-23	0.723	
2.569999999999992e-13	1e-15	0.0	0.0	1.7156918648000005e-23	0.725	
2.579999999999992e-13	1e-15	0.0	0.0	1.7156918648000005e-23	0.726	
2.589999999999992e-13	1e-15	0.0	0.0	1.7156918648000005e-23	0.727	
2.599999999999992e-13	1e-15	0.0	0.0	1.7156918648000005e-23	0.729	
2.609999999999992e-13	1e-15	0.0	0.0	1.7156918648000005e-23	0.730	
2.619999999999992e-13	1e-15	0.0	0.0	1.7156918648000005e-23	0.732	
2.629999999999992e-13	1e-15	0.0	0.0	1.7156918648000005e-23	0.733	
2.639999999999992e-13	1e-15	0.0	0.0	1.7156918648000005e-23	0.735	
2.6499999999999917e-13	1e-15	0.0	0.0	1.7156918648000005e-23	0.736	
2.6599999999999917e-13	1e-15	0.0	0.0	1.7156918648000005e-23	0.738	
2.6699999999999917e-13	1e-15	0.0	0.0	1.7156918648000005e-23	0.739	
2.6799999999999916e-13	1e-15	0.0	0.0	1.7156918648000005e-23	0.741	
2.6899999999999916e-13	1e-15	0.0	0.0	1.7156918648000005e-23	0.742	
2.6999999999999915e-13	1e-15	0.0	0.0	1.7156918648000005e-23	0.744	
2.7099999999999915e-13	1e-15	0.0	0.0	1.7156918648000005e-23	0.745	
2.7199999999999914e-13	1e-15	0.0	0.0	1.7156918648000005e-23	0.747	
2.7299999999999914e-13	1e-15	0.0	0.0	1.7156918648000005e-23	0.748	
2.7399999999999914e-13	1e-15	0.0	0.0	1.7156918648000005e-23	0.749	
2.7499999999999913e-13	1e-15	0.0	0.0	1.7156918648000005e-23	0.751	
2.7599999999999913e-13	1e-15	0.0	0.0	1.7156918648000005e-23	0.752	
2.769999999999991e-13	1e-15	0.0	0.0	1.7156918648000005e-23	0.754	
2.779999999999991e-13	1e-15	0.0	0.0	1.7156918648000005e-23	0.755	
2.789999999999991e-13	1e-15	0.0	0.0	1.7156918648000005e-23	0.757	
2.799999999999991e-13	1e-15	0.0	0.0	1.7156918648000005e-23	0.758	
2.809999999999991e-13	1e-15	0.0	0.0	1.7156918648000005e-23	0.760	
2.819999999999991e-13	1e-15	0.0	0.0	1.7156918648000005e-23	0.761	
2.829999999999991e-13	1e-15	0.0	0.0	1.7156918648000005e-23	0.763	
2.839999999999991e-13	1e-15	0.0	0.0	1.7156918648000005e-23	0.764	
2.849999999999991e-13	1e-15	0.0	0.0	1.7156918648000005e-23	0.766	
2.859999999999991e-13	1e-15	0.0	0.0	1.7156918648000005e-23	0.767	
2.869999999999991e-13	1e-15	0.0	0.0	1.7156918648000005e-23	0.769	
2.879999999999991e-13	1e-15	0.0	0.0	1.7156918648000005e-23	0.770	
2.8899999999999907e-13	1e-15	0.0	0.0	1.7156918648000005e-23	0.771	
2.8999999999999907e-13	1e-15	0.0	0.0	1.7156918648000005e-23	0.773	
2.9099999999999906e-13	1e-15	0.0	0.0	1.7156918648000005e-23	0.774	
2.9199999999999906e-13	1e-15	0.0	0.0	1.7156918648000005e-23	0.776	
2.9299999999999905e-13	1e-15	0.0	0.0	1.7156918648000005e-23	0.777	
2.9399999999999905e-13	1e-15	0.0	0.0	1.7156918648000005e-23	0.779	
2.9499999999999905e-13	1e-15	0.0	0.0	1.7156918648000005e-23	0.780	
2.9599999999999904e-13	1e-15	0.0	0.0	1.7156918648000005e-23	0.782	
2.9699999999999904e-13	1e-15	0.0	0.0	1.7156918648000005e-23	0.783	
2.9799999999999903e-13	1e-15	0.0	0.0	1.7156918648000005e-23	0.785	
2.9899999999999903e-13	1e-15	0.0	0.0	1.7156918648000005e-23	0.786	
2.99999999999999e-13	1e-15	0.0	0.0	1.7156918648000005e-23	0.789	
3.00999999999999e-13	1e-15	0.0	0.0	1.7156918648000005e-23	0.789	
3.01999999999999e-13	1e-15	0.0	0.0	1.7156918648000005e-23	0.791	
3.02999999999999e-13	1e-15	0.0	0.0	1.7156918648000005e-23	0.792	
3.03999999999999e-13	1e-15	0.0	0.0	1.7156918648000005e-23	0.794	
3.04999999999999e-13	1e-15	0.0	0.0	1.7156918648000005e-23	0.795	
3.05999999999999e-13	1e-15	0.0	0.0	1.7156918648000005e-23	0.797	
3.06999999999999e-13	1e-15	0.0	0.0	1.7156918648000005e-23	0.798	
3.07999999999999e-13	1e-15	0.0	0.0	1.7156918648000005e-23	0.799	
3.08999999999999e-13	1e-15	0.0	0.0	1.7156918648000005e-23	0.801	
3.09999999999999e-13	1e-15	0.0	0.0	1.7156918648000005e-23	0.802	
3.10999999999999e-13	1e-15	0.0	0.0	1.7156918648000005e-23	0.804	
3.1199999999999897e-13	1e-15	0.0	0.0	1.7156918648000005e-23	0.805	
3.1299999999999897e-13	1e-15	0.0	0.0	1.7156918648000005e-23	0.807	
3.1399999999999896e-13	1e-15	0.0	0.0	1.7156918648000005e-23	0.808	
3.1499999999999896e-13	1e-15	0.0	0.0	1.7156918648000005e-23	0.810	
3.1599999999999896e-13	1e-15	0.0	0.0	1.7156918648000005e-23	0.811	
3.1699999999999895e-13	1e-15	0.0	0.0	1.7156918648000005e-23	0.813	
3.1799999999999895e-13	1e-15	0.0	0.0	1.7156918648000005e-23	0.814	
3.1899999999999894e-13	1e-15	0.0	0.0	1.7156918648000005e-23	0.816	
3.1999999999999894e-13	1e-15	0.0	0.0	1.7156918648000005e-23	0.817	
3.2099999999999894e-13	1e-15	0.0	0.0	1.7156918648000005e-23	0.819	
3.2199999999999893e-13	1e-15	0.0	0.0	1.7156918648000005e-23	0.820	
3.2299999999999893e-13	1e-15	0.0	0.0	1.7156918648000005e-23	0.821	
3.239999999999989e-13	1e-15	0.0	0.0	1.7156918648000005e-23	0.823	
3.249999999999989e-13	1e-15	0.0	0.0	1.7156918648000005e-23	0.824	
3.259999999999989e-13	1e-15	0.0	0.0	1.7156918648000005e-23	0.826	
3.269999999999989e-13	1e-15	0.0	0.0	1.7156918648000005e-23	0.827	
3.279999999999989e-13	1e-15	0.0	0.0	1.7156918648000005e-23	0.829	
3.289999999999989e-13	1e-15	0.0	0.0	1.7156918648000005e-23	0.830	
3.299999999999989e-13	1e-15	0.0	0.0	1.7156918648000005e-23	0.832	
3.309999999999989e-13	1e-15	0.0	0.0	1.7156918648000005e-23	0.833	
3.319999999999989e-13	1e-15	0.0	0.0	1.7156918648000005e-23	0.835	
3.329999999999989e-13	1e-15	0.0	0.0	1.7156918648000005e-23	0.836	
3.339999999999989e-13	1e-15	0.0	0.0	1.7156918648000005e-23	0.838	
3.349999999999989e-13	1e-15	0.0	0.0	1.7156918648000005e-23	0.839	
3.3599999999999887e-13	1e-15	0.0	0.0	1.7156918648000005e-23	0.841	
3.3699999999999887e-13	1e-15	0.0	0.0	1.7156918648000005e-23	0.842	
3.3799999999999886e-13	1e-15	0.0	0.0	1.7156918648000005e-23	0.844	
3.3899999999999886e-13	1e-15	0.0	0.0	1.7156918648000005e-23	0.845	
3.3999999999999885e-13	1e-15	0.0	0.0	1.7156918648000005e-23	0.846	
3.4099999999999885e-13	1e-15	0.0	0.0	1.7156918648000005e-23	0.848	
3.4199999999999885e-13	1e-15	0.0	0.0	1.7156918648000005e-23	0.849	
3.4299999999999884e-13	1e-15	0.0	0.0	1.7156918648000005e-23	0.851	
3.4399999999999884e-13	1e-15	0.0	0.0	1.7156918648000005e-23	0.852	
3.4499999999999883e-13	1e-15	0.0	0.0	1.7156918648000005e-23	0.854	
3.4599999999999883e-13	1e-15	0.0	0.0	1.7156918648000005e-23	0.855	
3.469999999999988e-13	1e-15	0.0	0.0	1.7156918648000005e-23	0.857	
3.479999999999988e-13	1e-15	0.0	0.0	1.7156918648000005e-23	0.858	
3.489999999999988e-13	1e-15	0.0	0.0	1.7156918648000005e-23	0.860	
3.499999999999988e-13	1e-15	0.0	0.0	1.7156918648000005e-23	0.861	
3.509999999999988e-13	1e-15	0.0	0.0	1.7156918648000005e-23	0.863	
3.519999999999988e-13	1e-15	0.0	0.0	1.7156918648000005e-23	0.864	
3.529999999999988e-13	1e-15	0.0	0.0	1.7156918648000005e-23	0.866	
3.539999999999988e-13	1e-15	0.0	0.0	1.7156918648000005e-23	0.867	
3.549999999999988e-13	1e-15	0.0	0.0	1.7156918648000005e-23	0.869	
3.559999999999988e-13	1e-15	0.0	0.0	1.7156918648000005e-23	0.870	
3.569999999999988e-13	1e-15	0.0	0.0	1.7156918648000005e-23	0.871	
3.579999999999988e-13	1e-15	0.0	0.0	1.7156918648000005e-23	0.873	
3.5899999999999877e-13	1e-15	0.0	0.0	1.7156918648000005e-23	0.874	
3.5999999999999877e-13	1e-15	0.0	0.0	1.7156918648000005e-23	0.876	
3.6099999999999876e-13	1e-15	0.0	0.0	1.7156918648000005e-23	0.877	
3.6199999999999876e-13	1e-15	0.0	0.0	1.7156918648000005e-23	0.879	
3.6299999999999876e-13	1e-15	0.0	0.0	1.7156918648000005e-23	0.880	
3.6399999999999875e-13	1e-15	0.0	0.0	1.7156918648000005e-23	0.882	
3.6499999999999875e-13	1e-15	0.0	0.0	1.7156918648000005e-23	0.883	
3.6599999999999874e-13	1e-15	0.0	0.0	1.7156918648000005e-23	0.885	
3.6699999999999874e-13	1e-15	0.0	0.0	1.7156918648000005e-23	0.886	
3.6799999999999873e-13	1e-15	0.0	0.0	1.7156918648000005e-23	0.888	
3.6899999999999873e-13	1e-15	0.0	0.0	1.7156918648000005e-23	0.889	
3.6999999999999873e-13	1e-15	0.0	0.0	1.7156918648000005e-23	0.891	
3.709999999999987e-13	1e-15	0.0	0.0	1.7156918648000005e-23	0.892	
3.719999999999987e-13	1e-15	0.0	0.0	1.7156918648000005e-23	0.893	
3.729999999999987e-13	1e-15	0.0	0.0	1.7156918648000005e-23	0.895	
3.739999999999987e-13	1e-15	0.0	0.0	1.7156918648000005e-23	0.896	
3.749999999999987e-13	1e-15	0.0	0.0	1.7156918648000005e-23	0.898	
3.759999999999987e-13	1e-15	0.0	0.0	1.7156918648000005e-23	0.899	
3.769999999999987e-13	1e-15	0.0	0.0	1.7156918648000005e-23	0.901	
3.779999999999987e-13	1e-15	0.0	0.0	1.7156918648000005e-23	0.902	
3.789999999999987e-13	1e-15	0.0	0.0	1.7156918648000005e-23	0.904	
3.799999999999987e-13	1e-15	0.0	0.0	1.7156918648000005e-23	0.905	
3.809999999999987e-13	1e-15	0.0	0.0	1.7156918648000005e-23	0.907	
3.819999999999987e-13	1e-15	0.0	0.0	1.7156918648000005e-23	0.908	
3.8299999999999867e-13	1e-15	0.0	0.0	1.7156918648000005e-23	0.910	
3.8399999999999867e-13	1e-15	0.0	0.0	1.7156918648000005e-23	0.911	
3.8499999999999866e-13	1e-15	0.0	0.0	1.7156918648000005e-23	0.913	
3.8599999999999866e-13	1e-15	0.0	0.0	1.7156918648000005e-23	0.914	
3.8699999999999865e-13	1e-15	0.0	0.0	1.7156918648000005e-23	0.915	
3.8799999999999865e-13	1e-15	0.0	0.0	1.7156918648000005e-23	0.917	
3.8899999999999865e-13	1e-15	0.0	0.0	1.7156918648000005e-23	0.918	
3.8999999999999864e-13	1e-15	0.0	0.0	1.7156918648000005e-23	0.920	
3.9099999999999864e-13	1e-15	0.0	0.0	1.7156918648000005e-23	0.921	
3.9199999999999863e-13	1e-15	0.0	0.0	1.7156918648000005e-23	0.923	
3.9299999999999863e-13	1e-15	0.0	0.0	1.7156918648000005e-23	0.924	
3.939999999999986e-13	1e-15	0.0	0.0	1.7156918648000005e-23	0.926	
3.949999999999986e-13	1e-15	0.0	0.0	1.7156918648000005e-23	0.927	
3.959999999999986e-13	1e-15	0.0	0.0	1.7156918648000005e-23	0.929	
3.969999999999986e-13	1e-15	0.0	0.0	1.7156918648000005e-23	0.930	
3.979999999999986e-13	1e-15	0.0	0.0	1.7156918648000005e-23	0.932	
3.989999999999986e-13	1e-15	0.0	0.0	1.7156918648000005e-23	0.933	
3.999999999999986e-13	1e-15	0.0	0.0	1.7156918648000005e-23	0.936	
4.009999999999986e-13	1e-15	0.0	0.0	1.7156918648000005e-23	0.936	
4.019999999999986e-13	1e-15	0.0	0.0	1.7156918648000005e-23	0.938	
4.029999999999986e-13	1e-15	0.0	0.0	1.7156918648000005e-23	0.939	
4.039999999999986e-13	1e-15	0.0	0.0	1.7156918648000005e-23	0.941	
4.049999999999986e-13	1e-15	0.0	0.0	1.7156918648000005e-23	0.942	
4.0599999999999857e-13	1e-15	0.0	0.0	1.7156918648000005e-23	0.944	
4.0699999999999857e-13	1e-15	0.0	0.0	1.7156918648000005e-23	0.945	
4.0799999999999856e-13	1e-15	0.0	0.0	1.7156918648000005e-23	0.946	
4.0899999999999856e-13	1e-15	0.0	0.0	1.7156918648000005e-23	0.948	
4.0999999999999856e-13	1e-15	0.0	0.0	1.7156918648000005e-23	0.949	
4.1099999999999855e-13	1e-15	0.0	0.0	1.7156918648000005e-23	0.951	
4.1199999999999855e-13	1e-15	0.0	0.0	1.7156918648000005e-23	0.952	
4.1299999999999854e-13	1e-15	0.0	0.0	1.7156918648000005e-23	0.954	
4.1399999999999854e-13	1e-15	0.0	0.0	1.7156918648000005e-23	0.955	
4.1499999999999853e-13	1e-15	0.0	0.0	1.7156918648000005e-23	0.957	
4.1599999999999853e-13	1e-15	0.0	0.0	1.7156918648000005e-23	0.958	
4.1699999999999853e-13	1e-15	0.0	0.0	1.7156918648000005e-23	0.960	
4.179999999999985e-13	1e-15	0.0	0.0	1.7156918648000005e-23	0.961	
4.189999999999985e-13	1e-15	0.0	0.0	1.7156918648000005e-23	0.963	
4.199999999999985e-13	1e-15	0.0	0.0	1.7156918648000005e-23	0.964	
4.209999999999985e-13	1e-15	0.0	0.0	1.7156918648000005e-23	0.966	
4.219999999999985e-13	1e-15	0.0	0.0	1.7156918648000005e-23	0.967	
4.229999999999985e-13	1e-15	0.0	0.0	1.7156918648000005e-23	0.969	
4.239999999999985e-13	1e-15	0.0	0.0	1.7156918648000005e-23	0.970	
4.249999999999985e-13	1e-15	0.0	0.0	1.7156918648000005e-23	0.971	
4.259999999999985e-13	1e-15	0.0	0.0	1.7156918648000005e-23	0.973	
4.269999999999985e-13	1e-15	0.0	0.0	1.7156918648000005e-23	0.974	
4.279999999999985e-13	1e-15	0.0	0.0	1.7156918648000005e-23	0.976	
4.289999999999985e-13	1e-15	0.0	0.0	1.7156918648000005e-23	0.977	
4.2999999999999847e-13	1e-15	0.0	0.0	1.7156918648000005e-23	0.979	
4.3099999999999847e-13	1e-15	0.0	0.0	1.7156918648000005e-23	0.980	
4.3199999999999846e-13	1e-15	0.0	0.0	1.7156918648000005e-23	0.982	
4.3299999999999846e-13	1e-15	0.0	0.0	1.7156918648000005e-23	0.983	
4.3399999999999845e-13	1e-15	0.0	0.0	1.7156918648000005e-23	0.985	
4.3499999999999845e-13	1e-15	0.0	0.0	1.7156918648000005e-23	0.986	
4.3599999999999845e-13	1e-15	0.0	0.0	1.7156918648000005e-23	0.988	
4.3699999999999844e-13	1e-15	0.0	0.0	1.7156918648000005e-23	0.989	
4.3799999999999844e-13	1e-15	0.0	0.0	1.7156918648000005e-23	0.991	
4.3899999999999843e-13	1e-15	0.0	0.0	1.7156918648000005e-23	0.992	
4.3999999999999843e-13	1e-15	0.0	0.0	1.7156918648000005e-23	0.993	
4.409999999999984e-13	1e-15	0.0	0.0	1.7156918648000005e-23	0.995	
4.419999999999984e-13	1e-15	0.0	0.0	1.7156918648000005e-23	0.996	
4.429999999999984e-13	1e-15	0.0	0.0	1.7156918648000005e-23	0.998	
4.439999999999984e-13	1e-15	0.0	0.0	1.7156918648000005e-23	0.999	
4.449999999999984e-13	1e-15	0.0	0.0	1.7156918648000005e-23	1.001	
4.459999999999984e-13	1e-15	0.0	0.0	1.7156918648000005e-23	1.002	
4.469999999999984e-13	1e-15	0.0	0.0	1.7156918648000005e-23	1.004	
4.479999999999984e-13	1e-15	0.0	0.0	1.7156918648000005e-23	1.005	
4.489999999999984e-13	1e-15	0.0	0.0	1.7156918648000005e-23	1.007	
4.499999999999984e-13	1e-15	0.0	0.0	1.7156918648000005e-23	1.008	
4.509999999999984e-13	1e-15	0.0	0.0	1.7156918648000005e-23	1.010	
4.519999999999984e-13	1e-15	0.0	0.0	1.7156918648000005e-23	1.011	
4.5299999999999837e-13	1e-15	0.0	0.0	1.7156918648000005e-23	1.013	
4.5399999999999837e-13	1e-15	0.0	0.0	1.7156918648000005e-23	1.014	
4.549999999999984e-13	1e-15	0.0	0.0	1.7156918648000005e-23	1.016	
4.559999999999984e-13	1e-15	0.0	0.0	1.7156918648000005e-23	1.017	
4.569999999999984e-13	1e-15	0.0	0.0	1.7156918648000005e-23	1.018	
4.579999999999984e-13	1e-15	0.0	0.0	1.7156918648000005e-23	1.020	
4.589999999999983e-13	1e-15	0.0	0.0	1.7156918648000005e-23	1.021	
4.599999999999983e-13	1e-15	0.0	0.0	1.7156918648000005e-23	1.023	
4.609999999999983e-13	1e-15	0.0	0.0	1.7156918648000005e-23	1.024	
4.619999999999983e-13	1e-15	0.0	0.0	1.7156918648000005e-23	1.026	
4.629999999999983e-13	1e-15	0.0	0.0	1.7156918648000005e-23	1.027	
4.639999999999983e-13	1e-15	0.0	0.0	1.7156918648000005e-23	1.029	
4.649999999999983e-13	1e-15	0.0	0.0	1.7156918648000005e-23	1.030	
4.659999999999983e-13	1e-15	0.0	0.0	1.7156918648000005e-23	1.032	
4.669999999999983e-13	1e-15	0.0	0.0	1.7156918648000005e-23	1.033	
4.679999999999983e-13	1e-15	0.0	0.0	1.7156918648000005e-23	1.035	
4.689999999999983e-13	1e-15	0.0	0.0	1.7156918648000005e-23	1.036	
4.699999999999983e-13	1e-15	0.0	0.0	1.7156918648000005e-23	1.038	
4.709999999999983e-13	1e-15	0.0	0.0	1.7156918648000005e-23	1.039	
4.719999999999983e-13	1e-15	0.0	0.0	1.7156918648000005e-23	1.040	
4.729999999999983e-13	1e-15	0.0	0.0	1.7156918648000005e-23	1.042	
4.739999999999983e-13	1e-15	0.0	0.0	1.7156918648000005e-23	1.043	
4.749999999999983e-13	1e-15	0.0	0.0	1.7156918648000005e-23	1.045	
4.759999999999983e-13	1e-15	0.0	0.0	1.7156918648000005e-23	1.046	
4.769999999999983e-13	1e-15	0.0	0.0	1.7156918648000005e-23	1.048	
4.779999999999983e-13	1e-15	0.0	0.0	1.7156918648000005e-23	1.049	
4.789999999999983e-13	1e-15	0.0	0.0	1.7156918648000005e-23	1.051	
4.799999999999983e-13	1e-15	0.0	0.0	1.7156918648000005e-23	1.052	
4.809999999999983e-13	1e-15	0.0	0.0	1.7156918648000005e-23	1.054	
4.819999999999982e-13	1e-15	0.0	0.0	1.7156918648000005e-23	1.055	
4.829999999999982e-13	1e-15	0.0	0.0	1.7156918648000005e-23	1.057	
4.839999999999982e-13	1e-15	0.0	0.0	1.7156918648000005e-23	1.058	
4.849999999999982e-13	1e-15	0.0	0.0	1.7156918648000005e-23	1.060	
4.859999999999982e-13	1e-15	0.0	0.0	1.7156918648000005e-23	1.061	
4.869999999999982e-13	1e-15	0.0	0.0	1.7156918648000005e-23	1.062	
4.879999999999982e-13	1e-15	0.0	0.0	1.7156918648000005e-23	1.064	
4.889999999999982e-13	1e-15	0.0	0.0	1.7156918648000005e-23	1.065	
4.899999999999982e-13	1e-15	0.0	0.0	1.7156918648000005e-23	1.067	
4.909999999999982e-13	1e-15	0.0	0.0	1.7156918648000005e-23	1.068	
4.919999999999982e-13	1e-15	0.0	0.0	1.7156918648000005e-23	1.070	
4.929999999999982e-13	1e-15	0.0	0.0	1.7156918648000005e-23	1.071	
4.939999999999982e-13	1e-15	0.0	0.0	1.7156918648000005e-23	1.073	
4.949999999999982e-13	1e-15	0.0	0.0	1.7156918648000005e-23	1.074	
4.959999999999982e-13	1e-15	0.0	0.0	1.7156918648000005e-23	1.076	
4.969999999999982e-13	1e-15	0.0	0.0	1.7156918648000005e-23	1.077	
4.979999999999982e-13	1e-15	0.0	0.0	1.7156918648000005e-23	1.079	
4.989999999999982e-13	1e-15	0.0	0.0	1.7156918648000005e-23	1.080	
4.999999999999982e-13	1e-15	0.0	0.0	1.7156918648000005e-23	1.083	
5.009999999999982e-13	1e-15	0.0	0.0	1.7156918648000005e-23	1.083	
5.019999999999982e-13	1e-15	0.0	0.0	1.7156918648000005e-23	1.085	
5.029999999999982e-13	1e-15	0.0	0.0	1.7156918648000005e-23	1.086	
5.039999999999982e-13	1e-15	0.0	0.0	1.7156918648000005e-23	1.088	
5.049999999999982e-13	1e-15	0.0	0.0	1.7156918648000005e-23	1.089	
5.059999999999981e-13	1e-15	0.0	0.0	1.7156918648000005e-23	1.090	
5.069999999999981e-13	1e-15	0.0	0.0	1.7156918648000005e-23	1.092	
5.079999999999981e-13	1e-15	0.0	0.0	1.7156918648000005e-23	1.093	
5.089999999999981e-13	1e-15	0.0	0.0	1.7156918648000005e-23	1.095	
5.099999999999981e-13	1e-15	0.0	0.0	1.7156918648000005e-23	1.096	
5.109999999999981e-13	1e-15	0.0	0.0	1.7156918648000005e-23	1.098	
5.119999999999981e-13	1e-15	0.0	0.0	1.7156918648000005e-23	1.099	
5.129999999999981e-13	1e-15	0.0	0.0	1.7156918648000005e-23	1.101	
5.139999999999981e-13	1e-15	0.0	0.0	1.7156918648000005e-23	1.102	
5.149999999999981e-13	1e-15	0.0	0.0	1.7156918648000005e-23	1.104	
5.159999999999981e-13	1e-15	0.0	0.0	1.7156918648000005e-23	1.105	
5.169999999999981e-13	1e-15	0.0	0.0	1.7156918648000005e-23	1.107	
5.179999999999981e-13	1e-15	0.0	0.0	1.7156918648000005e-23	1.108	
5.189999999999981e-13	1e-15	0.0	0.0	1.7156918648000005e-23	1.110	
5.199999999999981e-13	1e-15	0.0	0.0	1.7156918648000005e-23	1.111	
5.209999999999981e-13	1e-15	0.0	0.0	1.7156918648000005e-23	1.112	
5.219999999999981e-13	1e-15	0.0	0.0	1.7156918648000005e-23	1.114	
5.229999999999981e-13	1e-15	0.0	0.0	1.7156918648000005e-23	1.115	
5.239999999999981e-13	1e-15	0.0	0.0	1.7156918648000005e-23	1.117	
5.249999999999981e-13	1e-15	0.0	0.0	1.7156918648000005e-23	1.118	
5.259999999999981e-13	1e-15	0.0	0.0	1.7156918648000005e-23	1.120	
5.269999999999981e-13	1e-15	0.0	0.0	1.7156918648000005e-23	1.121	
5.279999999999981e-13	1e-15	0.0	0.0	1.7156918648000005e-23	1.123	
5.28999999999998e-13	1e-15	0.0	0.0	1.7156918648000005e-23	1.124	
5.29999999999998e-13	1e-15	0.0	0.0	1.7156918648000005e-23	1.126	
5.30999999999998e-13	1e-15	0.0	0.0	1.7156918648000005e-23	1.127	
5.31999999999998e-13	1e-15	0.0	0.0	1.7156918648000005e-23	1.129	
5.32999999999998e-13	1e-15	0.0	0.0	1.7156918648000005e-23	1.130	
5.33999999999998e-13	1e-15	0.0	0.0	1.7156918648000005e-23	1.132	
5.34999999999998e-13	1e-15	0.0	0.0	1.7156918648000005e-23	1.133	
5.35999999999998e-13	1e-15	0.0	0.0	1.7156918648000005e-23	1.135	
5.36999999999998e-13	1e-15	0.0	0.0	1.7156918648000005e-23	1.136	
5.37999999999998e-13	1e-15	0.0	0.0	1.7156918648000005e-23	1.137	
5.38999999999998e-13	1e-15	0.0	0.0	1.7156918648000005e-23	1.139	
5.39999999999998e-13	1e-15	0.0	0.0	1.7156918648000005e-23	1.140	
5.40999999999998e-13	1e-15	0.0	0.0	1.7156918648000005e-23	1.142	
5.41999999999998e-13	1e-15	0.0	0.0	1.7156918648000005e-23	1.143	
5.42999999999998e-13	1e-15	0.0	0.0	1.7156918648000005e-23	1.145	
5.43999999999998e-13	1e-15	0.0	0.0	1.7156918648000005e-23	1.146	