# ODT 1.0
# Table Start
# Title: (no title)
#
## Generated by magnum.DataTableStepHandler.
## Number of columns: 6
#
# Columns:   {time}                    {step size}               {average magn. x}         {average magn. y}         {average magn. z}         {wall clock time}         
# Units:     {s}                       {s}                       {A/m}                     {A/m}                     {A/m}                     {s}                       
1.0099999999999986e-13	1e-15	0.0	0.0	1.7156918648000146e-23	0.017	
1.0199999999999986e-13	1e-15	0.0	0.0	1.7156918648000146e-23	0.017	
1.0299999999999985e-13	1e-15	0.0	0.0	1.7156918648000146e-23	0.018	
1.0399999999999985e-13	1e-15	0.0	0.0	1.7156918648000146e-23	0.018	
1.0499999999999984e-13	1e-15	0.0	0.0	1.7156918648000146e-23	0.018	
1.0599999999999984e-13	1e-15	0.0	0.0	1.7156918648000146e-23	0.018	
1.0699999999999983e-13	1e-15	0.0	0.0	1.7156918648000146e-23	0.018	
1.0799999999999983e-13	1e-15	0.0	0.0	1.7156918648000146e-23	0.018	
1.0899999999999983e-13	1e-15	0.0	0.0	1.7156918648000146e-23	0.019	
1.0999999999999982e-13	1e-15	0.0	0.0	1.7156918648000146e-23	0.019	
1.1099999999999982e-13	1e-15	0.0	0.0	1.7156918648000146e-23	0.019	
1.1199999999999981e-13	1e-15	0.0	0.0	1.7156918648000146e-23	0.019	
1.1299999999999981e-13	1e-15	0.0	0.0	1.7156918648000146e-23	0.019	
1.1399999999999982e-13	1e-15	0.0	0.0	1.7156918648000146e-23	0.019	
1.1499999999999981e-13	1e-15	0.0	0.0	1.7156918648000146e-23	0.019	
1.159999999999998e-13	1e-15	0.0	0.0	1.7156918648000146e-23	0.020	
1.169999999999998e-13	1e-15	0.0	0.0	1.7156918648000146e-23	0.020	
1.179999999999998e-13	1e-15	0.0	0.0	1.7156918648000146e-23	0.020	
1.189999999999998e-13	1e-15	0.0	0.0	1.7156918648000146e-23	0.020	
1.199999999999998e-13	1e-15	0.0	0.0	1.7156918648000146e-23	0.020	
1.2099999999999979e-13	1e-15	0.0	0.0	1.7156918648000146e-23	0.020	
1.2199999999999978e-13	1e-15	0.0	0.0	1.7156918648000146e-23	0.020	
1.2299999999999978e-13	1e-15	0.0	0.0	1.7156918648000146e-23	0.021	
1.2399999999999977e-13	1e-15	0.0	0.0	1.7156918648000146e-23	0.021	
1.2499999999999977e-13	1e-15	0.0	0.0	1.7156918648000146e-23	0.021	
1.2599999999999977e-13	1e-15	0.0	0.0	1.7156918648000146e-23	0.021	
1.2699999999999976e-13	1e-15	0.0	0.0	1.7156918648000146e-23	0.021	
1.2799999999999976e-13	1e-15	0.0	0.0	1.7156918648000146e-23	0.021	
1.2899999999999975e-13	1e-15	0.0	0.0	1.7156918648000146e-23	0.022	
1.2999999999999975e-13	1e-15	0.0	0.0	1.7156918648000146e-23	0.022	
1.3099999999999974e-13	1e-15	0.0	0.0	1.7156918648000146e-23	0.022	
1.3199999999999974e-13	1e-15	0.0	0.0	1.7156918648000146e-23	0.022	
1.3299999999999974e-13	1e-15	0.0	0.0	1.7156918648000146e-23	0.022	
1.3399999999999973e-13	1e-15	0.0	0.0	1.7156918648000146e-23	0.022	
1.3499999999999973e-13	1e-15	0.0	0.0	1.7156918648000146e-23	0.022	
1.3599999999999972e-13	1e-15	0.0	0.0	1.7156918648000146e-23	0.023	
1.3699999999999972e-13	1e-15	0.0	0.0	1.7156918648000146e-23	0.023	
1.3799999999999971e-13	1e-15	0.0	0.0	1.7156918648000146e-23	0.023	
1.389999999999997e-13	1e-15	0.0	0.0	1.7156918648000146e-23	0.023	
1.399999999999997e-13	1e-15	0.0	0.0	1.7156918648000146e-23	0.023	
1.409999999999997e-13	1e-15	0.0	0.0	1.7156918648000146e-23	0.023	
1.419999999999997e-13	1e-15	0.0	0.0	1.7156918648000146e-23	0.024	
1.429999999999997e-13	1e-15	0.0	0.0	1.7156918648000146e-23	0.024	
1.439999999999997e-13	1e-15	0.0	0.0	1.7156918648000146e-23	0.024	
1.4499999999999969e-13	1e-15	0.0	0.0	1.7156918648000146e-23	0.024	
1.4599999999999968e-13	1e-15	0.0	0.0	1.7156918648000146e-23	0.024	
1.4699999999999968e-13	1e-15	0.0	0.0	1.7156918648000146e-23	0.024	
1.4799999999999967e-13	1e-15	0.0	0.0	1.7156918648000146e-23	0.025	
1.4899999999999967e-13	1e-15	0.0	0.0	1.7156918648000146e-23	0.025	
1.4999999999999966e-13	1e-15	0.0	0.0	1.7156918648000146e-23	0.025	
1.5099999999999966e-13	1e-15	0.0	0.0	1.7156918648000146e-23	0.025	
1.5199999999999966e-13	1e-15	0.0	0.0	1.7156918648000146e-23	0.025	
1.5299999999999965e-13	1e-15	0.0	0.0	1.7156918648000146e-23	0.025	
1.5399999999999965e-13	1e-15	0.0	0.0	1.7156918648000146e-23	0.026	
1.5499999999999964e-13	1e-15	0.0	0.0	1.7156918648000146e-23	0.026	
1.5599999999999964e-13	1e-15	0.0	0.0	1.7156918648000146e-23	0.026	
1.5699999999999963e-13	1e-15	0.0	0.0	1.7156918648000146e-23	0.026	
1.5799999999999963e-13	1e-15	0.0	0.0	1.7156918648000146e-23	0.026	
1.5899999999999963e-13	1e-15	0.0	0.0	1.7156918648000146e-23	0.026	
1.5999999999999962e-13	1e-15	0.0	0.0	1.7156918648000146e-23	0.026	
1.6099999999999962e-13	1e-15	0.0	0.0	1.7156918648000146e-23	0.027	
1.6199999999999961e-13	1e-15	0.0	0.0	1.7156918648000146e-23	0.027	
1.629999999999996e-13	1e-15	0.0	0.0	1.7156918648000146e-23	0.027	
1.639999999999996e-13	1e-15	0.0	0.0	1.7156918648000146e-23	0.027	
1.649999999999996e-13	1e-15	0.0	0.0	1.7156918648000146e-23	0.027	
1.659999999999996e-13	1e-15	0.0	0.0	1.7156918648000146e-23	0.027	
1.669999999999996e-13	1e-15	0.0	0.0	1.7156918648000146e-23	0.028	
1.6799999999999959e-13	1e-15	0.0	0.0	1.7156918648000146e-23	0.028	
1.6899999999999958e-13	1e-15	0.0	0.0	1.7156918648000146e-23	0.028	
1.6999999999999958e-13	1e-15	0.0	0.0	1.7156918648000146e-23	0.028	
1.7099999999999957e-13	1e-15	0.0	0.0	1.7156918648000146e-23	0.028	
1.7199999999999957e-13	1e-15	0.0	0.0	1.7156918648000146e-23	0.028	
1.7299999999999957e-13	1e-15	0.0	0.0	1.7156918648000146e-23	0.029	
1.7399999999999956e-13	1e-15	0.0	0.0	1.7156918648000146e-23	0.029	
1.7499999999999956e-13	1e-15	0.0	0.0	1.7156918648000146e-23	0.029	
1.7599999999999955e-13	1e-15	0.0	0.0	1.7156918648000146e-23	0.029	
1.7699999999999955e-13	1e-15	0.0	0.0	1.7156918648000146e-23	0.029	
1.7799999999999954e-13	1e-15	0.0	0.0	1.7156918648000146e-23	0.029	
1.7899999999999954e-13	1e-15	0.0	0.0	1.7156918648000146e-23	0.030	
1.7999999999999954e-13	1e-15	0.0	0.0	1.7156918648000146e-23	0.030	
1.8099999999999953e-13	1e-15	0.0	0.0	1.7156918648000146e-23	0.030	
1.8199999999999953e-13	1e-15	0.0	0.0	1.7156918648000146e-23	0.030	
1.8299999999999952e-13	1e-15	0.0	0.0	1.7156918648000146e-23	0.030	
1.8399999999999952e-13	1e-15	0.0	0.0	1.7156918648000146e-23	0.030	
1.8499999999999951e-13	1e-15	0.0	0.0	1.7156918648000146e-23	0.031	
1.859999999999995e-13	1e-15	0.0	0.0	1.7156918648000146e-23	0.031	
1.869999999999995e-13	1e-15	0.0	0.0	1.7156918648000146e-23	0.031	
1.879999999999995e-13	1e-15	0.0	0.0	1.7156918648000146e-23	0.031	
1.889999999999995e-13	1e-15	0.0	0.0	1.7156918648000146e-23	0.031	
1.899999999999995e-13	1e-15	0.0	0.0	1.7156918648000146e-23	0.031	
1.909999999999995e-13	1e-15	0.0	0.0	1.7156918648000146e-23	0.032	
1.9199999999999948e-13	1e-15	0.0	0.0	1.7156918648000146e-23	0.032	
1.9299999999999948e-13	1e-15	0.0	0.0	1.7156918648000146e-23	0.032	
1.9399999999999948e-13	1e-15	0.0	0.0	1.7156918648000146e-23	0.032	
1.9499999999999947e-13	1e-15	0.0	0.0	1.7156918648000146e-23	0.032	
1.9599999999999947e-13	1e-15	0.0	0.0	1.7156918648000146e-23	0.032	
1.9699999999999946e-13	1e-15	0.0	0.0	1.7156918648000146e-23	0.033	
1.9799999999999946e-13	1e-15	0.0	0.0	1.7156918648000146e-23	0.033	
1.9899999999999945e-13	1e-15	0.0	0.0	1.7156918648000146e-23	0.033	
1.9999999999999945e-13	1e-15	0.0	0.0	1.7156918648000146e-23	0.033	
2.0099999999999945e-13	1e-15	0.0	0.0	1.7156918648000146e-23	0.033	
2.0199999999999944e-13	1e-15	0.0	0.0	1.7156918648000146e-23	0.033	
2.0299999999999944e-13	1e-15	0.0	0.0	1.7156918648000146e-23	0.034	
2.0399999999999943e-13	1e-15	0.0	0.0	1.7156918648000146e-23	0.034	
2.0499999999999943e-13	1e-15	0.0	0.0	1.7156918648000146e-23	0.034	
2.0599999999999943e-13	1e-15	0.0	0.0	1.7156918648000146e-23	0.034	
2.0699999999999942e-13	1e-15	0.0	0.0	1.7156918648000146e-23	0.034	
2.0799999999999942e-13	1e-15	0.0	0.0	1.7156918648000146e-23	0.034	
2.089999999999994e-13	1e-15	0.0	0.0	1.7156918648000146e-23	0.035	
2.099999999999994e-13	1e-15	0.0	0.0	1.7156918648000146e-23	0.035	
2.109999999999994e-13	1e-15	0.0	0.0	1.7156918648000146e-23	0.035	
2.119999999999994e-13	1e-15	0.0	0.0	1.7156918648000146e-23	0.035	
2.129999999999994e-13	1e-15	0.0	0.0	1.7156918648000146e-23	0.035	
2.139999999999994e-13	1e-15	0.0	0.0	1.7156918648000146e-23	0.035	
2.1499999999999939e-13	1e-15	0.0	0.0	1.7156918648000146e-23	0.036	
2.1599999999999938e-13	1e-15	0.0	0.0	1.7156918648000146e-23	0.036	
2.1699999999999938e-13	1e-15	0.0	0.0	1.7156918648000146e-23	0.036	
2.1799999999999937e-13	1e-15	0.0	0.0	1.7156918648000146e-23	0.036	
2.1899999999999937e-13	1e-15	0.0	0.0	1.7156918648000146e-23	0.036	
2.1999999999999937e-13	1e-15	0.0	0.0	1.7156918648000146e-23	0.036	
2.2099999999999936e-13	1e-15	0.0	0.0	1.7156918648000146e-23	0.036	
2.2199999999999936e-13	1e-15	0.0	0.0	1.7156918648000146e-23	0.037	
2.2299999999999935e-13	1e-15	0.0	0.0	1.7156918648000146e-23	0.037	
2.2399999999999935e-13	1e-15	0.0	0.0	1.7156918648000146e-23	0.037	
2.2499999999999934e-13	1e-15	0.0	0.0	1.7156918648000146e-23	0.037	
2.2599999999999934e-13	1e-15	0.0	0.0	1.7156918648000146e-23	0.037	
2.2699999999999934e-13	1e-15	0.0	0.0	1.7156918648000146e-23	0.037	
2.2799999999999933e-13	1e-15	0.0	0.0	1.7156918648000146e-23	0.038	
2.2899999999999933e-13	1e-15	0.0	0.0	1.7156918648000146e-23	0.038	
2.299999999999993e-13	1e-15	0.0	0.0	1.7156918648000146e-23	0.038	
2.309999999999993e-13	1e-15	0.0	0.0	1.7156918648000146e-23	0.038	
2.319999999999993e-13	1e-15	0.0	0.0	1.7156918648000146e-23	0.038	
2.329999999999993e-13	1e-15	0.0	0.0	1.7156918648000146e-23	0.038	
2.339999999999993e-13	1e-15	0.0	0.0	1.7156918648000146e-23	0.038	
2.349999999999993e-13	1e-15	0.0	0.0	1.7156918648000146e-23	0.039	
2.359999999999993e-13	1e-15	0.0	0.0	1.7156918648000146e-23	0.039	
2.369999999999993e-13	1e-15	0.0	0.0	1.7156918648000146e-23	0.039	
2.379999999999993e-13	1e-15	0.0	0.0	1.7156918648000146e-23	0.039	
2.389999999999993e-13	1e-15	0.0	0.0	1.7156918648000146e-23	0.039	
2.399999999999993e-13	1e-15	0.0	0.0	1.7156918648000146e-23	0.039	
2.409999999999993e-13	1e-15	0.0	0.0	1.7156918648000146e-23	0.039	
2.4199999999999927e-13	1e-15	0.0	0.0	1.7156918648000146e-23	0.040	
2.4299999999999927e-13	1e-15	0.0	0.0	1.7156918648000146e-23	0.040	
2.4399999999999926e-13	1e-15	0.0	0.0	1.7156918648000146e-23	0.040	
2.4499999999999926e-13	1e-15	0.0	0.0	1.7156918648000146e-23	0.040	
2.4599999999999925e-13	1e-15	0.0	0.0	1.7156918648000146e-23	0.040	
2.4699999999999925e-13	1e-15	0.0	0.0	1.7156918648000146e-23	0.040	
2.4799999999999925e-13	1e-15	0.0	0.0	1.7156918648000146e-23	0.040	
2.4899999999999924e-13	1e-15	0.0	0.0	1.7156918648000146e-23	0.041	
2.4999999999999924e-13	1e-15	0.0	0.0	1.7156918648000146e-23	0.041	
2.5099999999999923e-13	1e-15	0.0	0.0	1.7156918648000146e-23	0.041	
2.5199999999999923e-13	1e-15	0.0	0.0	1.7156918648000146e-23	0.041	
2.529999999999992e-13	1e-15	0.0	0.0	1.7156918648000146e-23	0.041	
2.539999999999992e-13	1e-15	0.0	0.0	1.7156918648000146e-23	0.041	
2.549999999999992e-13	1e-15	0.0	0.0	1.7156918648000146e-23	0.042	
2.559999999999992e-13	1e-15	0.0	0.0	1.7156918648000146e-23	0.042	
2.569999999999992e-13	1e-15	0.0	0.0	1.7156918648000146e-23	0.042	
2.579999999999992e-13	1e-15	0.0	0.0	1.7156918648000146e-23	0.042	
2.589999999999992e-13	1e-15	0.0	0.0	1.7156918648000146e-23	0.042	
2.599999999999992e-13	1e-15	0.0	0.0	1.7156918648000146e-23	0.042	
2.609999999999992e-13	1e-15	0.0	0.0	1.7156918648000146e-23	0.042	
2.619999999999992e-13	1e-15	0.0	0.0	1.7156918648000146e-23	0.043	
2.629999999999992e-13	1e-15	0.0	0.0	1.7156918648000146e-23	0.043	
2.639999999999992e-13	1e-15	0.0	0.0	1.7156918648000146e-23	0.043	
2.6499999999999917e-13	1e-15	0.0	0.0	1.7156918648000146e-23	0.043	
2.6599999999999917e-13	1e-15	0.0	0.0	1.7156918648000146e-23	0.043	
2.6699999999999917e-13	1e-15	0.0	0.0	1.7156918648000146e-23	0.043	
2.6799999999999916e-13	1e-15	0.0	0.0	1.7156918648000146e-23	0.043	
2.6899999999999916e-13	1e-15	0.0	0.0	1.7156918648000146e-23	0.044	
2.6999999999999915e-13	1e-15	0.0	0.0	1.7156918648000146e-23	0.044	
2.7099999999999915e-13	1e-15	0.0	0.0	1.7156918648000146e-23	0.044	
2.7199999999999914e-13	1e-15	0.0	0.0	1.7156918648000146e-23	0.044	
2.7299999999999914e-13	1e-15	0.0	0.0	1.7156918648000146e-23	0.044	
2.7399999999999914e-13	1e-15	0.0	0.0	1.7156918648000146e-23	0.044	
2.7499999999999913e-13	1e-15	0.0	0.0	1.7156918648000146e-23	0.045	
2.7599999999999913e-13	1e-15	0.0	0.0	1.7156918648000146e-23	0.045	
2.769999999999991e-13	1e-15	0.0	0.0	1.7156918648000146e-23	0.045	
2.779999999999991e-13	1e-15	0.0	0.0	1.7156918648000146e-23	0.045	
2.789999999999991e-13	1e-15	0.0	0.0	1.7156918648000146e-23	0.045	
2.799999999999991e-13	1e-15	0.0	0.0	1.7156918648000146e-23	0.045	
2.809999999999991e-13	1e-15	0.0	0.0	1.7156918648000146e-23	0.045	
2.819999999999991e-13	1e-15	0.0	0.0	1.7156918648000146e-23	0.046	
2.829999999999991e-13	1e-15	0.0	0.0	1.7156918648000146e-23	0.046	
2.839999999999991e-13	1e-15	0.0	0.0	1.7156918648000146e-23	0.046	
2.849999999999991e-13	1e-15	0.0	0.0	1.7156918648000146e-23	0.046	
2.859999999999991e-13	1e-15	0.0	0.0	1.7156918648000146e-23	0.046	
2.869999999999991e-13	1e-15	0.0	0.0	1.7156918648000146e-23	0.046	
2.879999999999991e-13	1e-15	0.0	0.0	1.7156918648000146e-23	0.046	
2.8899999999999907e-13	1e-15	0.0	0.0	1.7156918648000146e-23	0.047	
2.8999999999999907e-13	1e-15	0.0	0.0	1.7156918648000146e-23	0.047	
2.9099999999999906e-13	1e-15	0.0	0.0	1.7156918648000146e-23	0.047	
2.9199999999999906e-13	1e-15	0.0	0.0	1.7156918648000146e-23	0.047	
2.9299999999999905e-13	1e-15	0.0	0.0	1.7156918648000146e-23	0.047	
2.9399999999999905e-13	1e-15	0.0	0.0	1.7156918648000146e-23	0.047	
2.9499999999999905e-13	1e-15	0.0	0.0	1.7156918648000146e-23	0.047	
2.9599999999999904e-13	1e-15	0.0	0.0	1.7156918648000146e-23	0.048	
2.9699999999999904e-13	1e-15	0.0	0.0	1.7156918648000146e-23	0.048	
2.9799999999999903e-13	1e-15	0.0	0.0	1.7156918648000146e-23	0.048	
2.9899999999999903e-13	1e-15	0.0	0.0	1.7156918648000146e-23	0.048	
2.99999999999999e-13	1e-15	0.0	0.0	1.7156918648000146e-23	0.048	
3.00999999999999e-13	1e-15	0.0	0.0	1.7156918648000146e-23	0.049	
3.01999999999999e-13	1e-15	0.0	0.0	1.7156918648000146e-23	0.049	
3.02999999999999e-13	1e-15	0.0	0.0	1.7156918648000146e-23	0.049	
3.03999999999999e-13	1e-15	0.0	0.0	1.7156918648000146e-23	0.049	
3.04999999999999e-13	1e-15	0.0	0.0	1.7156918648000146e-23	0.049	
3.05999999999999e-13	1e-15	0.0	0.0	1.7156918648000146e-23	0.049	
3.06999999999999e-13	1e-15	0.0	0.0	1.7156918648000146e-23	0.049	
3.07999999999999e-13	1e-15	0.0	0.0	1.7156918648000146e-23	0.050	
3.08999999999999e-13	1e-15	0.0	0.0	1.7156918648000146e-23	0.050	
3.09999999999999e-13	1e-15	0.0	0.0	1.7156918648000146e-23	0.050	
3.10999999999999e-13	1e-15	0.0	0.0	1.7156918648000146e-23	0.050	
3.1199999999999897e-13	1e-15	0.0	0.0	1.7156918648000146e-23	0.050	
3.1299999999999897e-13	1e-15	0.0	0.0	1.7156918648000146e-23	0.050	
3.1399999999999896e-13	1e-15	0.0	0.0	1.7156918648000146e-23	0.050	
3.1499999999999896e-13	1e-15	0.0	0.0	1.7156918648000146e-23	0.051	
3.1599999999999896e-13	1e-15	0.0	0.0	1.7156918648000146e-23	0.051	
3.1699999999999895e-13	1e-15	0.0	0.0	1.7156918648000146e-23	0.051	
3.1799999999999895e-13	1e-15	0.0	0.0	1.7156918648000146e-23	0.051	
3.1899999999999894e-13	1e-15	0.0	0.0	1.7156918648000146e-23	0.051	
3.1999999999999894e-13	1e-15	0.0	0.0	1.7156918648000146e-23	0.051	
3.2099999999999894e-13	1e-15	0.0	0.0	1.7156918648000146e-23	0.052	
3.2199999999999893e-13	1e-15	0.0	0.0	1.7156918648000146e-23	0.052	
3.2299999999999893e-13	1e-15	0.0	0.0	1.7156918648000146e-23	0.052	
3.239999999999989e-13	1e-15	0.0	0.0	1.7156918648000146e-23	0.052	
3.249999999999989e-13	1e-15	0.0	0.0	1.7156918648000146e-23	0.052	
3.259999999999989e-13	1e-15	0.0	0.0	1.7156918648000146e-23	0.052	
3.269999999999989e-13	1e-15	0.0	0.0	1.7156918648000146e-23	0.052	
3.279999999999989e-13	1e-15	0.0	0.0	1.7156918648000146e-23	0.053	
3.289999999999989e-13	1e-15	0.0	0.0	1.7156918648000146e-23	0.053	
3.299999999999989e-13	1e-15	0.0	0.0	1.7156918648000146e-23	0.053	
3.309999999999989e-13	1e-15	0.0	0.0	1.7156918648000146e-23	0.053	
3.319999999999989e-13	1e-15	0.0	0.0	1.7156918648000146e-23	0.053	
3.329999999999989e-13	1e-15	0.0	0.0	1.7156918648000146e-23	0.053	
3.339999999999989e-13	1e-15	0.0	0.0	1.7156918648000146e-23	0.053	
3.349999999999989e-13	1e-15	0.0	0.0	1.7156918648000146e-23	0.054	
3.3599999999999887e-13	1e-15	0.0	0.0	1.7156918648000146e-23	0.054	
3.3699999999999887e-13	1e-15	0.0	0.0	1.7156918648000146e-23	0.054	
3.3799999999999886e-13	1e-15	0.0	0.0	1.7156918648000146e-23	0.054	
3.3899999999999886e-13	1e-15	0.0	0.0	1.7156918648000146e-23	0.054	
3.3999999999999885e-13	1e-15	0.0	0.0	1.7156918648000146e-23	0.054	
3.4099999999999885e-13	1e-15	0.0	0.0	1.7156918648000146e-23	0.054	
3.4199999999999885e-13	1e-15	0.0	0.0	1.7156918648000146e-23	0.055	
3.4299999999999884e-13	1e-15	0.0	0.0	1.7156918648000146e-23	0.055	
3.4399999999999884e-13	1e-15	0.0	0.0	1.7156918648000146e-23	0.055	
3.4499999999999883e-13	1e-15	0.0	0.0	1.7156918648000146e-23	0.055	
3.4599999999999883e-13	1e-15	0.0	0.0	1.7156918648000146e-23	0.055	
3.469999999999988e-13	1e-15	0.0	0.0	1.7156918648000146e-23	0.055	
3.479999999999988e-13	1e-15	0.0	0.0	1.7156918648000146e-23	0.056	
3.489999999999988e-13	1e-15	0.0	0.0	1.7156918648000146e-23	0.056	
3.499999999999988e-13	1e-15	0.0	0.0	1.7156918648000146e-23	0.056	
3.509999999999988e-13	1e-15	0.0	0.0	1.7156918648000146e-23	0.056	
3.519999999999988e-13	1e-15	0.0	0.0	1.7156918648000146e-23	0.056	
3.529999999999988e-13	1e-15	0.0	0.0	1.7156918648000146e-23	0.056	
3.539999999999988e-13	1e-15	0.0	0.0	1.7156918648000146e-23	0.056	
3.549999999999988e-13	1e-15	0.0	0.0	1.7156918648000146e-23	0.057	
3.559999999999988e-13	1e-15	0.0	0.0	1.7156918648000146e-23	0.057	
3.569999999999988e-13	1e-15	0.0	0.0	1.7156918648000146e-23	0.057	
3.579999999999988e-13	1e-15	0.0	0.0	1.7156918648000146e-23	0.057	
3.5899999999999877e-13	1e-15	0.0	0.0	1.7156918648000146e-23	0.057	
3.5999999999999877e-13	1e-15	0.0	0.0	1.7156918648000146e-23	0.057	
3.6099999999999876e-13	1e-15	0.0	0.0	1.7156918648000146e-23	0.057	
3.6199999999999876e-13	1e-15	0.0	0.0	1.7156918648000146e-23	0.057	
3.6299999999999876e-13	1e-15	0.0	0.0	1.7156918648000146e-23	0.058	
3.6399999999999875e-13	1e-15	0.0	0.0	1.7156918648000146e-23	0.058	
3.6499999999999875e-13	1e-15	0.0	0.0	1.7156918648000146e-23	0.058	
3.6599999999999874e-13	1e-15	0.0	0.0	1.7156918648000146e-23	0.058	
3.6699999999999874e-13	1e-15	0.0	0.0	1.7156918648000146e-23	0.058	
3.6799999999999873e-13	1e-15	0.0	0.0	1.7156918648000146e-23	0.058	
3.6899999999999873e-13	1e-15	0.0	0.0	1.7156918648000146e-23	0.058	
3.6999999999999873e-13	1e-15	0.0	0.0	1.7156918648000146e-23	0.058	
3.709999999999987e-13	1e-15	0.0	0.0	1.7156918648000146e-23	0.059	
3.719999999999987e-13	1e-15	0.0	0.0	1.7156918648000146e-23	0.059	
3.729999999999987e-13	1e-15	0.0	0.0	1.7156918648000146e-23	0.059	
3.739999999999987e-13	1e-15	0.0	0.0	1.7156918648000146e-23	0.059	
3.749999999999987e-13	1e-15	0.0	0.0	1.7156918648000146e-23	0.059	
3.759999999999987e-13	1e-15	0.0	0.0	1.7156918648000146e-23	0.059	
3.769999999999987e-13	1e-15	0.0	0.0	1.7156918648000146e-23	0.059	
3.779999999999987e-13	1e-15	0.0	0.0	1.7156918648000146e-23	0.060	
3.789999999999987e-13	1e-15	0.0	0.0	1.7156918648000146e-23	0.060	
3.799999999999987e-13	1e-15	0.0	0.0	1.7156918648000146e-23	0.060	
3.809999999999987e-13	1e-15	0.0	0.0	1.7156918648000146e-23	0.060	
3.819999999999987e-13	1e-15	0.0	0.0	1.7156918648000146e-23	0.060	
3.8299999999999867e-13	1e-15	0.0	0.0	1.7156918648000146e-23	0.060	
3.8399999999999867e-13	1e-15	0.0	0.0	1.7156918648000146e-23	0.060	
3.8499999999999866e-13	1e-15	0.0	0.0	1.7156918648000146e-23	0.060	
3.8599999999999866e-13	1e-15	0.0	0.0	1.7156918648000146e-23	0.060	
3.8699999999999865e-13	1e-15	0.0	0.0	1.7156918648000146e-23	0.060	
3.8799999999999865e-13	1e-15	0.0	0.0	1.7156918648000146e-23	0.061	
3.8899999999999865e-13	1e-15	0.0	0.0	1.7156918648000146e-23	0.061	
3.8999999999999864e-13	1e-15	0.0	0.0	1.7156918648000146e-23	0.061	
3.9099999999999864e-13	1e-15	0.0	0.0	1.7156918648000146e-23	0.061	
3.9199999999999863e-13	1e-15	0.0	0.0	1.7156918648000146e-23	0.061	
3.9299999999999863e-13	1e-15	0.0	0.0	1.7156918648000146e-23	0.061	
3.939999999999986e-13	1e-15	0.0	0.0	1.7156918648000146e-23	0.061	
3.949999999999986e-13	1e-15	0.0	0.0	1.7156918648000146e-23	0.061	
3.959999999999986e-13	1e-15	0.0	0.0	1.7156918648000146e-23	0.061	
3.969999999999986e-13	1e-15	0.0	0.0	1.7156918648000146e-23	0.061	
3.979999999999986e-13	1e-15	0.0	0.0	1.7156918648000146e-23	0.061	
3.989999999999986e-13	1e-15	0.0	0.0	1.7156918648000146e-23	0.061	
3.999999999999986e-13	1e-15	0.0	0.0	1.7156918648000146e-23	0.062	
4.009999999999986e-13	1e-15	0.0	0.0	1.7156918648000146e-23	0.062	
4.019999999999986e-13	1e-15	0.0	0.0	1.7156918648000146e-23	0.062	
4.029999999999986e-13	1e-15	0.0	0.0	1.7156918648000146e-23	0.062	
4.039999999999986e-13	1e-15	0.0	0.0	1.7156918648000146e-23	0.062	
4.049999999999986e-13	1e-15	0.0	0.0	1.7156918648000146e-23	0.062	
4.0599999999999857e-13	1e-15	0.0	0.0	1.7156918648000146e-23	0.062	
4.0699999999999857e-13	1e-15	0.0	0.0	1.7156918648000146e-23	0.062	
4.0799999999999856e-13	1e-15	0.0	0.0	1.7156918648000146e-23	0.062	
4.0899999999999856e-13	1e-15	0.0	0.0	1.7156918648000146e-23	0.062	
4.0999999999999856e-13	1e-15	0.0	0.0	1.7156918648000146e-23	0.062	
4.1099999999999855e-13	1e-15	0.0	0.0	1.7156918648000146e-23	0.062	
4.1199999999999855e-13	1e-15	0.0	0.0	1.7156918648000146e-23	0.062	
4.1299999999999854e-13	1e-15	0.0	0.0	1.7156918648000146e-23	0.063	
4.1399999999999854e-13	1e-15	0.0	0.0	1.7156918648000146e-23	0.063	
4.1499999999999853e-13	1e-15	0.0	0.0	1.7156918648000146e-23	0.063	
4.1599999999999853e-13	1e-15	0.0	0.0	1.7156918648000146e-23	0.063	
4.1699999999999853e-13	1e-15	0.0	0.0	1.7156918648000146e-23	0.063	
4.179999999999985e-13	1e-15	0.0	0.0	1.7156918648000146e-23	0.063	
4.189999999999985e-13	1e-15	0.0	0.0	1.7156918648000146e-23	0.063	
4.199999999999985e-13	1e-15	0.0	0.0	1.7156918648000146e-23	0.063	
4.209999999999985e-13	1e-15	0.0	0.0	1.7156918648000146e-23	0.063	
4.219999999999985e-13	1e-15	0.0	0.0	1.7156918648000146e-23	0.063	
4.229999999999985e-13	1e-15	0.0	0.0	1.7156918648000146e-23	0.063	
4.239999999999985e-13	1e-15	0.0	0.0	1.7156918648000146e-23	0.063	
4.249999999999985e-13	1e-15	0.0	0.0	1.7156918648000146e-23	0.063	
4.259999999999985e-13	1e-15	0.0	0.0	1.7156918648000146e-23	0.063	
4.269999999999985e-13	1e-15	0.0	0.0	1.7156918648000146e-23	0.064	
4.279999999999985e-13	1e-15	0.0	0.0	1.7156918648000146e-23	0.064	
4.289999999999985e-13	1e-15	0.0	0.0	1.7156918648000146e-23	0.064	
4.2999999999999847e-13	1e-15	0.0	0.0	1.7156918648000146e-23	0.064	
4.3099999999999847e-13	1e-15	0.0	0.0	1.7156918648000146e-23	0.064	
4.3199999999999846e-13	1e-15	0.0	0.0	1.7156918648000146e-23	0.064	
4.3299999999999846e-13	1e-15	0.0	0.0	1.7156918648000146e-23	0.064	
4.3399999999999845e-13	1e-15	0.0	0.0	1.7156918648000146e-23	0.064	
4.3499999999999845e-13	1e-15	0.0	0.0	1.7156918648000146e-23	0.064	
4.3599999999999845e-13	1e-15	0.0	0.0	1.7156918648000146e-23	0.064	
4.3699999999999844e-13	1e-15	0.0	0.0	1.7156918648000146e-23	0.064	
4.3799999999999844e-13	1e-15	0.0	0.0	1.7156918648000146e-23	0.064	
4.3899999999999843e-13	1e-15	0.0	0.0	1.7156918648000146e-23	0.064	
4.3999999999999843e-13	1e-15	0.0	0.0	1.7156918648000146e-23	0.065	
4.409999999999984e-13	1e-15	0.0	0.0	1.7156918648000146e-23	0.065	
4.419999999999984e-13	1e-15	0.0	0.0	1.7156918648000146e-23	0.065	
4.429999999999984e-13	1e-15	0.0	0.0	1.7156918648000146e-23	0.065	
4.439999999999984e-13	1e-15	0.0	0.0	1.7156918648000146e-23	0.065	
4.449999999999984e-13	1e-15	0.0	0.0	1.7156918648000146e-23	0.065	
4.459999999999984e-13	1e-15	0.0	0.0	1.7156918648000146e-23	0.065	
4.469999999999984e-13	1e-15	0.0	0.0	1.7156918648000146e-23	0.065	
4.479999999999984e-13	1e-15	0.0	0.0	1.7156918648000146e-23	0.065	
4.489999999999984e-13	1e-15	0.0	0.0	1.7156918648000146e-23	0.065	
4.499999999999984e-13	1e-15	0.0	0.0	1.7156918648000146e-23	0.065	
4.509999999999984e-13	1e-15	0.0	0.0	1.7156918648000146e-23	0.065	
4.519999999999984e-13	1e-15	0.0	0.0	1.7156918648000146e-23	0.065	
4.5299999999999837e-13	1e-15	0.0	0.0	1.7156918648000146e-23	0.066	
4.5399999999999837e-13	1e-15	0.0	0.0	1.7156918648000146e-23	0.066	
4.549999999999984e-13	1e-15	0.0	0.0	1.7156918648000146e-23	0.066	
4.559999999999984e-13	1e-15	0.0	0.0	1.7156918648000146e-23	0.066	
4.569999999999984e-13	1e-15	0.0	0.0	1.7156918648000146e-23	0.066	
4.579999999999984e-13	1e-15	0.0	0.0	1.7156918648000146e-23	0.066	
4.589999999999983e-13	1e-15	0.0	0.0	1.7156918648000146e-23	0.066	
4.599999999999983e-13	1e-15	0.0	0.0	1.7156918648000146e-23	0.066	
4.609999999999983e-13	1e-15	0.0	0.0	1.7156918648000146e-23	0.066	
4.619999999999983e-13	1e-15	0.0	0.0	1.7156918648000146e-23	0.066	
4.629999999999983e-13	1e-15	0.0	0.0	1.7156918648000146e-23	0.066	
4.639999999999983e-13	1e-15	0.0	0.0	1.7156918648000146e-23	0.066	
4.649999999999983e-13	1e-15	0.0	0.0	1.7156918648000146e-23	0.066	
4.659999999999983e-13	1e-15	0.0	0.0	1.7156918648000146e-23	0.066	
4.669999999999983e-13	1e-15	0.0	0.0	1.7156918648000146e-23	0.067	
4.679999999999983e-13	1e-15	0.0	0.0	1.7156918648000146e-23	0.067	
4.689999999999983e-13	1e-15	0.0	0.0	1.7156918648000146e-23	0.067	
4.699999999999983e-13	1e-15	0.0	0.0	1.7156918648000146e-23	0.067	
4.709999999999983e-13	1e-15	0.0	0.0	1.7156918648000146e-23	0.067	
4.719999999999983e-13	1e-15	0.0	0.0	1.7156918648000146e-23	0.067	
4.729999999999983e-13	1e-15	0.0	0.0	1.7156918648000146e-23	0.067	
4.739999999999983e-13	1e-15	0.0	0.0	1.7156918648000146e-23	0.067	
4.749999999999983e-13	1e-15	0.0	0.0	1.7156918648000146e-23	0.067	
4.759999999999983e-13	1e-15	0.0	0.0	1.7156918648000146e-23	0.067	
4.769999999999983e-13	1e-15	0.0	0.0	1.7156918648000146e-23	0.067	
4.779999999999983e-13	1e-15	0.0	0.0	1.7156918648000146e-23	0.067	
4.789999999999983e-13	1e-15	0.0	0.0	1.7156918648000146e-23	0.067	
4.799999999999983e-13	1e-15	0.0	0.0	1.7156918648000146e-23	0.068	
4.809999999999983e-13	1e-15	0.0	0.0	1.7156918648000146e-23	0.068	
4.819999999999982e-13	1e-15	0.0	0.0	1.7156918648000146e-23	0.068	
4.829999999999982e-13	1e-15	0.0	0.0	1.7156918648000146e-23	0.068	
4.839999999999982e-13	1e-15	0.0	0.0	1.7156918648000146e-23	0.068	
4.849999999999982e-13	1e-15	0.0	0.0	1.7156918648000146e-23	0.068	
4.859999999999982e-13	1e-15	0.0	0.0	1.7156918648000146e-23	0.068	
4.869999999999982e-13	1e-15	0.0	0.0	1.7156918648000146e-23	0.068	
4.879999999999982e-13	1e-15	0.0	0.0	1.7156918648000146e-23	0.068	
4.889999999999982e-13	1e-15	0.0	0.0	1.7156918648000146e-23	0.068	
4.899999999999982e-13	1e-15	0.0	0.0	1.7156918648000146e-23	0.068	
4.909999999999982e-13	1e-15	0.0	0.0	1.7156918648000146e-23	0.068	
4.919999999999982e-13	1e-15	0.0	0.0	1.7156918648000146e-23	0.068	
4.929999999999982e-13	1e-15	0.0	0.0	1.7156918648000146e-23	0.069	
4.939999999999982e-13	1e-15	0.0	0.0	1.7156918648000146e-23	0.069	
4.949999999999982e-13	1e-15	0.0	0.0	1.7156918648000146e-23	0.069	
4.959999999999982e-13	1e-15	0.0	0.0	1.7156918648000146e-23	0.069	
4.969999999999982e-13	1e-15	0.0	0.0	1.7156918648000146e-23	0.069	
4.979999999999982e-13	1e-15	0.0	0.0	1.7156918648000146e-23	0.069	
4.989999999999982e-13	1e-15	0.0	0.0	1.7156918648000146e-23	0.069	
4.999999999999982e-13	1e-15	0.0	0.0	1.7156918648000146e-23	0.069	
5.009999999999982e-13	1e-15	0.0	0.0	1.7156918648000146e-23	0.069	
5.019999999999982e-13	1e-15	0.0	0.0	1.7156918648000146e-23	0.069	
5.029999999999982e-13	1e-15	0.0	0.0	1.7156918648000146e-23	0.069	
5.039999999999982e-13	1e-15	0.0	0.0	1.7156918648000146e-23	0.069	
5.049999999999982e-13	1e-15	0.0	0.0	1.7156918648000146e-23	0.069	
5.059999999999981e-13	1e-15	0.0	0.0	1.7156918648000146e-23	0.070	
5.069999999999981e-13	1e-15	0.0	0.0	1.7156918648000146e-23	0.070	
5.079999999999981e-13	1e-15	0.0	0.0	1.7156918648000146e-23	0.070	
5.089999999999981e-13	1e-15	0.0	0.0	1.7156918648000146e-23	0.070	
5.099999999999981e-13	1e-15	0.0	0.0	1.7156918648000146e-23	0.070	
5.109999999999981e-13	1e-15	0.0	0.0	1.7156918648000146e-23	0.070	
5.119999999999981e-13	1e-15	0.0	0.0	1.7156918648000146e-23	0.070	
5.129999999999981e-13	1e-15	0.0	0.0	1.7156918648000146e-23	0.070	
5.139999999999981e-13	1e-15	0.0	0.0	1.7156918648000146e-23	0.070	
5.149999999999981e-13	1e-15	0.0	0.0	1.7156918648000146e-23	0.070	
5.159999999999981e-13	1e-15	0.0	0.0	1.7156918648000146e-23	0.070	
5.169999999999981e-13	1e-15	0.0	0.0	1.7156918648000146e-23	0.070	
5.179999999999981e-13	1e-15	0.0	0.0	1.7156918648000146e-23	0.070	
5.189999999999981e-13	1e-15	0.0	0.0	1.7156918648000146e-23	0.071	
5.199999999999981e-13	1e-15	0.0	0.0	1.7156918648000146e-23	0.071	
5.209999999999981e-13	1e-15	0.0	0.0	1.7156918648000146e-23	0.071	
5.219999999999981e-13	1e-15	0.0	0.0	1.7156918648000146e-23	0.071	
5.229999999999981e-13	1e-15	0.0	0.0	1.7156918648000146e-23	0.071	
5.239999999999981e-13	1e-15	0.0	0.0	1.7156918648000146e-23	0.071	
5.249999999999981e-13	1e-15	0.0	0.0	1.7156918648000146e-23	0.071	
5.259999999999981e-13	1e-15	0.0	0.0	1.7156918648000146e-23	0.071	
5.269999999999981e-13	1e-15	0.0	0.0	1.7156918648000146e-23	0.071	
5.279999999999981e-13	1e-15	0.0	0.0	1.7156918648000146e-23	0.071	
5.28999999999998e-13	1e-15	0.0	0.0	1.7156918648000146e-23	0.071	
5.29999999999998e-13	1e-15	0.0	0.0	1.7156918648000146e-23	0.071	
5.30999999999998e-13	1e-15	0.0	0.0	1.7156918648000146e-23	0.071	
5.31999999999998e-13	1e-15	0.0	0.0	1.7156918648000146e-23	0.072	
5.32999999999998e-13	1e-15	0.0	0.0	1.7156918648000146e-23	0.072	
5.33999999999998e-13	1e-15	0.0	0.0	1.7156918648000146e-23	0.072	
5.34999999999998e-13	1e-15	0.0	0.0	1.7156918648000146e-23	0.072	
5.35999999999998e-13	1e-15	0.0	0.0	1.7156918648000146e-23	0.072	
5.36999999999998e-13	1e-15	0.0	0.0	1.7156918648000146e-23	0.072	
5.37999999999998e-13	1e-15	0.0	0.0	1.7156918648000146e-23	0.072	
5.38999999999998e-13	1e-15	0.0	0.0	1.7156918648000146e-23	0.072	
5.39999999999998e-13	1e-15	0.0	0.0	1.7156918648000146e-23	0.072	
5.40999999999998e-13	1e-15	0.0	0.0	1.7156918648000146e-23	0.072	
5.41999999999998e-13	1e-15	0.0	0.0	1.7156918648000146e-23	0.072	
5.42999999999998e-13	1e-15	0.0	0.0	1.7156918648000146e-23	0.072	
5.43999999999998e-13	1e-15	0.0	0.0	1.7156918648000146e-23	0.072	