# ODT 1.0
# Table Start
# Title: (no title)
#
## Generated by magnum.DataTableStepHandler.
## Number of columns: 6
#
# Columns:   {time}                    {step size}               {average magn. x}         {average magn. y}         {average magn. z}         {wall clock time}         
# Units:     {s}                       {s}                       {A/m}                     {A/m}                     {A/m}                     {s}                       
1.0099999999999986e-13	1e-15	0.0	0.0	0.0	0.480	
1.0199999999999986e-13	1e-15	0.0	0.0	0.0	0.481	
1.0299999999999985e-13	1e-15	0.0	0.0	0.0	0.483	
1.0399999999999985e-13	1e-15	0.0	0.0	0.0	0.484	
1.0499999999999984e-13	1e-15	0.0	0.0	0.0	0.486	
1.0599999999999984e-13	1e-15	0.0	0.0	0.0	0.487	
1.0699999999999983e-13	1e-15	0.0	0.0	0.0	0.489	
1.0799999999999983e-13	1e-15	0.0	0.0	0.0	0.490	
1.0899999999999983e-13	1e-15	0.0	0.0	0.0	0.492	
1.0999999999999982e-13	1e-15	0.0	0.0	0.0	0.493	
1.1099999999999982e-13	1e-15	0.0	0.0	0.0	0.495	
1.1199999999999981e-13	1e-15	0.0	0.0	0.0	0.496	
1.1299999999999981e-13	1e-15	0.0	0.0	0.0	0.498	
1.1399999999999982e-13	1e-15	0.0	0.0	0.0	0.499	
1.1499999999999981e-13	1e-15	0.0	0.0	0.0	0.501	
1.159999999999998e-13	1e-15	0.0	0.0	0.0	0.502	
1.169999999999998e-13	1e-15	0.0	0.0	0.0	0.504	
1.179999999999998e-13	1e-15	0.0	0.0	0.0	0.505	
1.189999999999998e-13	1e-15	0.0	0.0	0.0	0.507	
1.199999999999998e-13	1e-15	0.0	0.0	0.0	0.508	
1.2099999999999979e-13	1e-15	0.0	0.0	0.0	0.510	
1.2199999999999978e-13	1e-15	0.0	0.0	0.0	0.511	
1.2299999999999978e-13	1e-15	0.0	0.0	0.0	0.513	
1.2399999999999977e-13	1e-15	0.0	0.0	0.0	0.514	
1.2499999999999977e-13	1e-15	0.0	0.0	0.0	0.516	
1.2599999999999977e-13	1e-15	0.0	0.0	0.0	0.517	
1.2699999999999976e-13	1e-15	0.0	0.0	0.0	0.519	
1.2799999999999976e-13	1e-15	0.0	0.0	0.0	0.520	
1.2899999999999975e-13	1e-15	0.0	0.0	0.0	0.522	
1.2999999999999975e-13	1e-15	0.0	0.0	0.0	0.523	
1.3099999999999974e-13	1e-15	0.0	0.0	0.0	0.525	
1.3199999999999974e-13	1e-15	0.0	0.0	0.0	0.526	
1.3299999999999974e-13	1e-15	0.0	0.0	0.0	0.528	
1.3399999999999973e-13	1e-15	0.0	0.0	0.0	0.529	
1.3499999999999973e-13	1e-15	0.0	0.0	0.0	0.531	
1.3599999999999972e-13	1e-15	0.0	0.0	0.0	0.532	
1.3699999999999972e-13	1e-15	0.0	0.0	0.0	0.534	
1.3799999999999971e-13	1e-15	0.0	0.0	0.0	0.535	
1.389999999999997e-13	1e-15	0.0	0.0	0.0	0.537	
1.399999999999997e-13	1e-15	0.0	0.0	0.0	0.538	
1.409999999999997e-13	1e-15	0.0	0.0	0.0	0.540	
1.419999999999997e-13	1e-15	0.0	0.0	0.0	0.541	
1.429999999999997e-13	1e-15	0.0	0.0	0.0	0.542	
1.439999999999997e-13	1e-15	0.0	0.0	0.0	0.544	
1.4499999999999969e-13	1e-15	0.0	0.0	0.0	0.545	
1.4599999999999968e-13	1e-15	0.0	0.0	0.0	0.547	
1.4699999999999968e-13	1e-15	0.0	0.0	0.0	0.548	
1.4799999999999967e-13	1e-15	0.0	0.0	0.0	0.550	
1.4899999999999967e-13	1e-15	0.0	0.0	0.0	0.551	
1.4999999999999966e-13	1e-15	0.0	0.0	0.0	0.553	
1.5099999999999966e-13	1e-15	0.0	0.0	0.0	0.554	
1.5199999999999966e-13	1e-15	0.0	0.0	0.0	0.556	
1.5299999999999965e-13	1e-15	0.0	0.0	0.0	0.557	
1.5399999999999965e-13	1e-15	0.0	0.0	0.0	0.558	
1.5499999999999964e-13	1e-15	0.0	0.0	0.0	0.560	
1.5599999999999964e-13	1e-15	0.0	0.0	0.0	0.561	
1.5699999999999963e-13	1e-15	0.0	0.0	0.0	0.563	
1.5799999999999963e-13	1e-15	0.0	0.0	0.0	0.564	
1.5899999999999963e-13	1e-15	0.0	0.0	0.0	0.566	
1.5999999999999962e-13	1e-15	0.0	0.0	0.0	0.567	
1.6099999999999962e-13	1e-15	0.0	0.0	0.0	0.569	
1.6199999999999961e-13	1e-15	0.0	0.0	0.0	0.570	
1.629999999999996e-13	1e-15	0.0	0.0	0.0	0.572	
1.639999999999996e-13	1e-15	0.0	0.0	0.0	0.573	
1.649999999999996e-13	1e-15	0.0	0.0	0.0	0.574	
1.659999999999996e-13	1e-15	0.0	0.0	0.0	0.576	
1.669999999999996e-13	1e-15	0.0	0.0	0.0	0.577	
1.6799999999999959e-13	1e-15	0.0	0.0	0.0	0.579	
1.6899999999999958e-13	1e-15	0.0	0.0	0.0	0.580	
1.6999999999999958e-13	1e-15	0.0	0.0	0.0	0.582	
1.7099999999999957e-13	1e-15	0.0	0.0	0.0	0.583	
1.7199999999999957e-13	1e-15	0.0	0.0	0.0	0.585	
1.7299999999999957e-13	1e-15	0.0	0.0	0.0	0.586	
1.7399999999999956e-13	1e-15	0.0	0.0	0.0	0.587	
1.7499999999999956e-13	1e-15	0.0	0.0	0.0	0.589	
1.7599999999999955e-13	1e-15	0.0	0.0	0.0	0.590	
1.7699999999999955e-13	1e-15	0.0	0.0	0.0	0.592	
1.7799999999999954e-13	1e-15	0.0	0.0	0.0	0.593	
1.7899999999999954e-13	1e-15	0.0	0.0	0.0	0.595	
1.7999999999999954e-13	1e-15	0.0	0.0	0.0	0.596	
1.8099999999999953e-13	1e-15	0.0	0.0	0.0	0.598	
1.8199999999999953e-13	1e-15	0.0	0.0	0.0	0.599	
1.8299999999999952e-13	1e-15	0.0	0.0	0.0	0.601	
1.8399999999999952e-13	1e-15	0.0	0.0	0.0	0.602	
1.8499999999999951e-13	1e-15	0.0	0.0	0.0	0.603	
1.859999999999995e-13	1e-15	0.0	0.0	0.0	0.605	
1.869999999999995e-13	1e-15	0.0	0.0	0.0	0.606	
1.879999999999995e-13	1e-15	0.0	0.0	0.0	0.608	
1.889999999999995e-13	1e-15	0.0	0.0	0.0	0.609	
1.899999999999995e-13	1e-15	0.0	0.0	0.0	0.611	
1.909999999999995e-13	1e-15	0.0	0.0	0.0	0.612	
1.9199999999999948e-13	1e-15	0.0	0.0	0.0	0.614	
1.9299999999999948e-13	1e-15	0.0	0.0	0.0	0.615	
1.9399999999999948e-13	1e-15	0.0	0.0	0.0	0.616	
1.9499999999999947e-13	1e-15	0.0	0.0	0.0	0.618	
1.9599999999999947e-13	1e-15	0.0	0.0	0.0	0.619	
1.9699999999999946e-13	1e-15	0.0	0.0	0.0	0.621	
1.9799999999999946e-13	1e-15	0.0	0.0	0.0	0.622	
1.9899999999999945e-13	1e-15	0.0	0.0	0.0	0.624	
1.9999999999999945e-13	1e-15	0.0	0.0	0.0	0.627	
2.0099999999999945e-13	1e-15	0.0	0.0	0.0	0.627	
2.0199999999999944e-13	1e-15	0.0	0.0	0.0	0.628	
2.0299999999999944e-13	1e-15	0.0	0.0	0.0	0.630	
2.0399999999999943e-13	1e-15	0.0	0.0	0.0	0.631	
2.0499999999999943e-13	1e-15	0.0	0.0	0.0	0.633	
2.0599999999999943e-13	1e-15	0.0	0.0	0.0	0.634	
2.0699999999999942e-13	1e-15	0.0	0.0	0.0	0.635	
2.0799999999999942e-13	1e-15	0.0	0.0	0.0	0.637	
2.089999999999994e-13	1e-15	0.0	0.0	0.0	0.638	
2.099999999999994e-13	1e-15	0.0	0.0	0.0	0.640	
2.109999999999994e-13	1e-15	0.0	0.0	0.0	0.641	
2.119999999999994e-13	1e-15	0.0	0.0	0.0	0.643	
2.129999999999994e-13	1e-15	0.0	0.0	0.0	0.644	
2.139999999999994e-13	1e-15	0.0	0.0	0.0	0.646	
2.1499999999999939e-13	1e-15	0.0	0.0	0.0	0.647	
2.1599999999999938e-13	1e-15	0.0	0.0	0.0	0.648	
2.1699999999999938e-13	1e-15	0.0	0.0	0.0	0.650	
2.1799999999999937e-13	1e-15	0.0	0.0	0.0	0.651	
2.1899999999999937e-13	1e-15	0.0	0.0	0.0	0.653	
2.1999999999999937e-13	1e-15	0.0	0.0	0.0	0.654	
2.2099999999999936e-13	1e-15	0.0	0.0	0.0	0.656	
2.2199999999999936e-13	1e-15	0.0	0.0	0.0	0.657	
2.2299999999999935e-13	1e-15	0.0	0.0	0.0	0.659	
2.2399999999999935e-13	1e-15	0.0	0.0	0.0	0.660	
2.2499999999999934e-13	1e-15	0.0	0.0	0.0	0.662	
2.2599999999999934e-13	1e-15	0.0	0.0	0.0	0.663	
2.2699999999999934e-13	1e-15	0.0	0.0	0.0	0.664	
2.2799999999999933e-13	1e-15	0.0	0.0	0.0	0.666	
2.2899999999999933e-13	1e-15	0.0	0.0	0.0	0.667	
2.299999999999993e-13	1e-15	0.0	0.0	0.0	0.669	
2.309999999999993e-13	1e-15	0.0	0.0	0.0	0.670	
2.319999999999993e-13	1e-15	0.0	0.0	0.0	0.672	
2.329999999999993e-13	1e-15	0.0	0.0	0.0	0.673	
2.339999999999993e-13	1e-15	0.0	0.0	0.0	0.675	
2.349999999999993e-13	1e-15	0.0	0.0	0.0	0.676	
2.359999999999993e-13	1e-15	0.0	0.0	0.0	0.677	
2.369999999999993e-13	1e-15	0.0	0.0	0.0	0.679	
2.379999999999993e-13	1e-15	0.0	0.0	0.0	0.680	
2.389999999999993e-13	1e-15	0.0	0.0	0.0	0.682	
2.399999999999993e-13	1e-15	0.0	0.0	0.0	0.683	
2.409999999999993e-13	1e-15	0.0	0.0	0.0	0.685	
2.4199999999999927e-13	1e-15	0.0	0.0	0.0	0.686	
2.4299999999999927e-13	1e-15	0.0	0.0	0.0	0.688	
2.4399999999999926e-13	1e-15	0.0	0.0	0.0	0.689	
2.4499999999999926e-13	1e-15	0.0	0.0	0.0	0.691	
2.4599999999999925e-13	1e-15	0.0	0.0	0.0	0.692	
2.4699999999999925e-13	1e-15	0.0	0.0	0.0	0.693	
2.4799999999999925e-13	1e-15	0.0	0.0	0.0	0.695	
2.4899999999999924e-13	1e-15	0.0	0.0	0.0	0.696	
2.4999999999999924e-13	1e-15	0.0	0.0	0.0	0.698	
2.5099999999999923e-13	1e-15	0.0	0.0	0.0	0.699	
2.5199999999999923e-13	1e-15	0.0	0.0	0.0	0.701	
2.529999999999992e-13	1e-15	0.0	0.0	0.0	0.702	
2.539999999999992e-13	1e-15	0.0	0.0	0.0	0.704	
2.549999999999992e-13	1e-15	0.0	0.0	0.0	0.705	
2.559999999999992e-13	1e-15	0.0	0.0	0.0	0.706	
2.569999999999992e-13	1e-15	0.0	0.0	0.0	0.708	
2.579999999999992e-13	1e-15	0.0	0.0	0.0	0.709	
2.589999999999992e-13	1e-15	0.0	0.0	0.0	0.711	
2.599999999999992e-13	1e-15	0.0	0.0	0.0	0.712	
2.609999999999992e-13	1e-15	0.0	0.0	0.0	0.714	
2.619999999999992e-13	1e-15	0.0	0.0	0.0	0.715	
2.629999999999992e-13	1e-15	0.0	0.0	0.0	0.717	
2.639999999999992e-13	1e-15	0.0	0.0	0.0	0.718	
2.6499999999999917e-13	1e-15	0.0	0.0	0.0	0.720	
2.6599999999999917e-13	1e-15	0.0	0.0	0.0	0.721	
2.6699999999999917e-13	1e-15	0.0	0.0	0.0	0.722	
2.6799999999999916e-13	1e-15	0.0	0.0	0.0	0.724	
2.6899999999999916e-13	1e-15	0.0	0.0	0.0	0.725	
2.6999999999999915e-13	1e-15	0.0	0.0	0.0	0.727	
2.7099999999999915e-13	1e-15	0.0	0.0	0.0	0.728	
2.7199999999999914e-13	1e-15	0.0	0.0	0.0	0.730	
2.7299999999999914e-13	1e-15	0.0	0.0	0.0	0.731	
2.7399999999999914e-13	1e-15	0.0	0.0	0.0	0.733	
2.7499999999999913e-13	1e-15	0.0	0.0	0.0	0.734	
2.7599999999999913e-13	1e-15	0.0	0.0	0.0	0.735	
2.769999999999991e-13	1e-15	0.0	0.0	0.0	0.737	
2.779999999999991e-13	1e-15	0.0	0.0	0.0	0.738	
2.789999999999991e-13	1e-15	0.0	0.0	0.0	0.740	
2.799999999999991e-13	1e-15	0.0	0.0	0.0	0.741	
2.809999999999991e-13	1e-15	0.0	0.0	0.0	0.743	
2.819999999999991e-13	1e-15	0.0	0.0	0.0	0.744	
2.829999999999991e-13	1e-15	0.0	0.0	0.0	0.746	
2.839999999999991e-13	1e-15	0.0	0.0	0.0	0.747	
2.849999999999991e-13	1e-15	0.0	0.0	0.0	0.749	
2.859999999999991e-13	1e-15	0.0	0.0	0.0	0.750	
2.869999999999991e-13	1e-15	0.0	0.0	0.0	0.751	
2.879999999999991e-13	1e-15	0.0	0.0	0.0	0.753	
2.8899999999999907e-13	1e-15	0.0	0.0	0.0	0.754	
2.8999999999999907e-13	1e-15	0.0	0.0	0.0	0.756	
2.9099999999999906e-13	1e-15	0.0	0.0	0.0	0.757	
2.9199999999999906e-13	1e-15	0.0	0.0	0.0	0.759	
2.9299999999999905e-13	1e-15	0.0	0.0	0.0	0.760	
2.9399999999999905e-13	1e-15	0.0	0.0	0.0	0.762	
2.9499999999999905e-13	1e-15	0.0	0.0	0.0	0.763	
2.9599999999999904e-13	1e-15	0.0	0.0	0.0	0.764	
2.9699999999999904e-13	1e-15	0.0	0.0	0.0	0.766	
2.9799999999999903e-13	1e-15	0.0	0.0	0.0	0.767	
2.9899999999999903e-13	1e-15	0.0	0.0	0.0	0.769	
2.99999999999999e-13	1e-15	0.0	0.0	0.0	0.772	
3.00999999999999e-13	1e-15	0.0	0.0	0.0	0.772	
3.01999999999999e-13	1e-15	0.0	0.0	0.0	0.773	
3.02999999999999e-13	1e-15	0.0	0.0	0.0	0.775	
3.03999999999999e-13	1e-15	0.0	0.0	0.0	0.776	
3.04999999999999e-13	1e-15	0.0	0.0	0.0	0.778	
3.05999999999999e-13	1e-15	0.0	0.0	0.0	0.779	
3.06999999999999e-13	1e-15	0.0	0.0	0.0	0.781	
3.07999999999999e-13	1e-15	0.0	0.0	0.0	0.782	
3.08999999999999e-13	1e-15	0.0	0.0	0.0	0.783	
3.09999999999999e-13	1e-15	0.0	0.0	0.0	0.785	
3.10999999999999e-13	1e-15	0.0	0.0	0.0	0.786	
3.1199999999999897e-13	1e-15	0.0	0.0	0.0	0.788	
3.1299999999999897e-13	1e-15	0.0	0.0	0.0	0.789	
3.1399999999999896e-13	1e-15	0.0	0.0	0.0	0.791	
3.1499999999999896e-13	1e-15	0.0	0.0	0.0	0.792	
3.1599999999999896e-13	1e-15	0.0	0.0	0.0	0.794	
3.1699999999999895e-13	1e-15	0.0	0.0	0.0	0.795	
3.1799999999999895e-13	1e-15	0.0	0.0	0.0	0.796	
3.1899999999999894e-13	1e-15	0.0	0.0	0.0	0.798	
3.1999999999999894e-13	1e-15	0.0	0.0	0.0	0.799	
3.2099999999999894e-13	1e-15	0.0	0.0	0.0	0.801	
3.2199999999999893e-13	1e-15	0.0	0.0	0.0	0.802	
3.2299999999999893e-13	1e-15	0.0	0.0	0.0	0.804	
3.239999999999989e-13	1e-15	0.0	0.0	0.0	0.805	
3.249999999999989e-13	1e-15	0.0	0.0	0.0	0.807	
3.259999999999989e-13	1e-15	0.0	0.0	0.0	0.808	
3.269999999999989e-13	1e-15	0.0	0.0	0.0	0.809	
3.279999999999989e-13	1e-15	0.0	0.0	0.0	0.811	
3.289999999999989e-13	1e-15	0.0	0.0	0.0	0.812	
3.299999999999989e-13	1e-15	0.0	0.0	0.0	0.814	
3.309999999999989e-13	1e-15	0.0	0.0	0.0	0.815	
3.319999999999989e-13	1e-15	0.0	0.0	0.0	0.817	
3.329999999999989e-13	1e-15	0.0	0.0	0.0	0.818	
3.339999999999989e-13	1e-15	0.0	0.0	0.0	0.820	
3.349999999999989e-13	1e-15	0.0	0.0	0.0	0.821	
3.3599999999999887e-13	1e-15	0.0	0.0	0.0	0.823	
3.3699999999999887e-13	1e-15	0.0	0.0	0.0	0.824	
3.3799999999999886e-13	1e-15	0.0	0.0	0.0	0.825	
3.3899999999999886e-13	1e-15	0.0	0.0	0.0	0.827	
3.3999999999999885e-13	1e-15	0.0	0.0	0.0	0.828	
3.4099999999999885e-13	1e-15	0.0	0.0	0.0	0.830	
3.4199999999999885e-13	1e-15	0.0	0.0	0.0	0.831	
3.4299999999999884e-13	1e-15	0.0	0.0	0.0	0.833	
3.4399999999999884e-13	1e-15	0.0	0.0	0.0	0.834	
3.4499999999999883e-13	1e-15	0.0	0.0	0.0	0.836	
3.4599999999999883e-13	1e-15	0.0	0.0	0.0	0.837	
3.469999999999988e-13	1e-15	0.0	0.0	0.0	0.838	
3.479999999999988e-13	1e-15	0.0	0.0	0.0	0.840	
3.489999999999988e-13	1e-15	0.0	0.0	0.0	0.841	
3.499999999999988e-13	1e-15	0.0	0.0	0.0	0.843	
3.509999999999988e-13	1e-15	0.0	0.0	0.0	0.844	
3.519999999999988e-13	1e-15	0.0	0.0	0.0	0.846	
3.529999999999988e-13	1e-15	0.0	0.0	0.0	0.847	
3.539999999999988e-13	1e-15	0.0	0.0	0.0	0.849	
3.549999999999988e-13	1e-15	0.0	0.0	0.0	0.850	
3.559999999999988e-13	1e-15	0.0	0.0	0.0	0.852	
3.569999999999988e-13	1e-15	0.0	0.0	0.0	0.853	
3.579999999999988e-13	1e-15	0.0	0.0	0.0	0.854	
3.5899999999999877e-13	1e-15	0.0	0.0	0.0	0.856	
3.5999999999999877e-13	1e-15	0.0	0.0	0.0	0.857	
3.6099999999999876e-13	1e-15	0.0	0.0	0.0	0.859	
3.6199999999999876e-13	1e-15	0.0	0.0	0.0	0.860	
3.6299999999999876e-13	1e-15	0.0	0.0	0.0	0.862	
3.6399999999999875e-13	1e-15	0.0	0.0	0.0	0.863	
3.6499999999999875e-13	1e-15	0.0	0.0	0.0	0.865	
3.6599999999999874e-13	1e-15	0.0	0.0	0.0	0.866	
3.6699999999999874e-13	1e-15	0.0	0.0	0.0	0.867	
3.6799999999999873e-13	1e-15	0.0	0.0	0.0	0.869	
3.6899999999999873e-13	1e-15	0.0	0.0	0.0	0.870	
3.6999999999999873e-13	1e-15	0.0	0.0	0.0	0.872	
3.709999999999987e-13	1e-15	0.0	0.0	0.0	0.873	
3.719999999999987e-13	1e-15	0.0	0.0	0.0	0.875	
3.729999999999987e-13	1e-15	0.0	0.0	0.0	0.876	
3.739999999999987e-13	1e-15	0.0	0.0	0.0	0.878	
3.749999999999987e-13	1e-15	0.0	0.0	0.0	0.879	
3.759999999999987e-13	1e-15	0.0	0.0	0.0	0.881	
3.769999999999987e-13	1e-15	0.0	0.0	0.0	0.882	
3.779999999999987e-13	1e-15	0.0	0.0	0.0	0.883	
3.789999999999987e-13	1e-15	0.0	0.0	0.0	0.885	
3.799999999999987e-13	1e-15	0.0	0.0	0.0	0.886	
3.809999999999987e-13	1e-15	0.0	0.0	0.0	0.888	
3.819999999999987e-13	1e-15	0.0	0.0	0.0	0.889	
3.8299999999999867e-13	1e-15	0.0	0.0	0.0	0.891	
3.8399999999999867e-13	1e-15	0.0	0.0	0.0	0.892	
3.8499999999999866e-13	1e-15	0.0	0.0	0.0	0.894	
3.8599999999999866e-13	1e-15	0.0	0.0	0.0	0.895	
3.8699999999999865e-13	1e-15	0.0	0.0	0.0	0.896	
3.8799999999999865e-13	1e-15	0.0	0.0	0.0	0.898	
3.8899999999999865e-13	1e-15	0.0	0.0	0.0	0.899	
3.8999999999999864e-13	1e-15	0.0	0.0	0.0	0.901	
3.9099999999999864e-13	1e-15	0.0	0.0	0.0	0.902	
3.9199999999999863e-13	1e-15	0.0	0.0	0.0	0.904	
3.9299999999999863e-13	1e-15	0.0	0.0	0.0	0.905	
3.939999999999986e-13	1e-15	0.0	0.0	0.0	0.907	
3.949999999999986e-13	1e-15	0.0	0.0	0.0	0.908	
3.959999999999986e-13	1e-15	0.0	0.0	0.0	0.910	
3.969999999999986e-13	1e-15	0.0	0.0	0.0	0.911	
3.979999999999986e-13	1e-15	0.0	0.0	0.0	0.912	
3.989999999999986e-13	1e-15	0.0	0.0	0.0	0.914	
3.999999999999986e-13	1e-15	0.0	0.0	0.0	0.917	
4.009999999999986e-13	1e-15	0.0	0.0	0.0	0.917	
4.019999999999986e-13	1e-15	0.0	0.0	0.0	0.918	
4.029999999999986e-13	1e-15	0.0	0.0	0.0	0.920	
4.039999999999986e-13	1e-15	0.0	0.0	0.0	0.921	
4.049999999999986e-13	1e-15	0.0	0.0	0.0	0.923	
4.0599999999999857e-13	1e-15	0.0	0.0	0.0	0.924	
4.0699999999999857e-13	1e-15	0.0	0.0	0.0	0.926	
4.0799999999999856e-13	1e-15	0.0	0.0	0.0	0.927	
4.0899999999999856e-13	1e-15	0.0	0.0	0.0	0.928	
4.0999999999999856e-13	1e-15	0.0	0.0	0.0	0.930	
4.1099999999999855e-13	1e-15	0.0	0.0	0.0	0.931	
4.1199999999999855e-13	1e-15	0.0	0.0	0.0	0.933	
4.1299999999999854e-13	1e-15	0.0	0.0	0.0	0.934	
4.1399999999999854e-13	1e-15	0.0	0.0	0.0	0.936	
4.1499999999999853e-13	1e-15	0.0	0.0	0.0	0.937	
4.1599999999999853e-13	1e-15	0.0	0.0	0.0	0.939	
4.1699999999999853e-13	1e-15	0.0	0.0	0.0	0.940	
4.179999999999985e-13	1e-15	0.0	0.0	0.0	0.942	
4.189999999999985e-13	1e-15	0.0	0.0	0.0	0.943	
4.199999999999985e-13	1e-15	0.0	0.0	0.0	0.944	
4.209999999999985e-13	1e-15	0.0	0.0	0.0	0.946	
4.219999999999985e-13	1e-15	0.0	0.0	0.0	0.947	
4.229999999999985e-13	1e-15	0.0	0.0	0.0	0.949	
4.239999999999985e-13	1e-15	0.0	0.0	0.0	0.950	
4.249999999999985e-13	1e-15	0.0	0.0	0.0	0.952	
4.259999999999985e-13	1e-15	0.0	0.0	0.0	0.953	
4.269999999999985e-13	1e-15	0.0	0.0	0.0	0.955	
4.279999999999985e-13	1e-15	0.0	0.0	0.0	0.956	
4.289999999999985e-13	1e-15	0.0	0.0	0.0	0.957	
4.2999999999999847e-13	1e-15	0.0	0.0	0.0	0.959	
4.3099999999999847e-13	1e-15	0.0	0.0	0.0	0.960	
4.3199999999999846e-13	1e-15	0.0	0.0	0.0	0.962	
4.3299999999999846e-13	1e-15	0.0	0.0	0.0	0.963	
4.3399999999999845e-13	1e-15	0.0	0.0	0.0	0.965	
4.3499999999999845e-13	1e-15	0.0	0.0	0.0	0.966	
4.3599999999999845e-13	1e-15	0.0	0.0	0.0	0.968	
4.3699999999999844e-13	1e-15	0.0	0.0	0.0	0.969	
4.3799999999999844e-13	1e-15	0.0	0.0	0.0	0.971	
4.3899999999999843e-13	1e-15	0.0	0.0	0.0	0.972	
4.3999999999999843e-13	1e-15	0.0	0.0	0.0	0.973	
4.409999999999984e-13	1e-15	0.0	0.0	0.0	0.975	
4.419999999999984e-13	1e-15	0.0	0.0	0.0	0.976	
4.429999999999984e-13	1e-15	0.0	0.0	0.0	0.978	
4.439999999999984e-13	1e-15	0.0	0.0	0.0	0.979	
4.449999999999984e-13	1e-15	0.0	0.0	0.0	0.981	
4.459999999999984e-13	1e-15	0.0	0.0	0.0	0.982	
4.469999999999984e-13	1e-15	0.0	0.0	0.0	0.984	
4.479999999999984e-13	1e-15	0.0	0.0	0.0	0.985	
4.489999999999984e-13	1e-15	0.0	0.0	0.0	0.986	
4.499999999999984e-13	1e-15	0.0	0.0	0.0	0.988	
4.509999999999984e-13	1e-15	0.0	0.0	0.0	0.989	
4.519999999999984e-13	1e-15	0.0	0.0	0.0	0.991	
4.5299999999999837e-13	1e-15	0.0	0.0	0.0	0.992	
4.5399999999999837e-13	1e-15	0.0	0.0	0.0	0.994	
4.549999999999984e-13	1e-15	0.0	0.0	0.0	0.995	
4.559999999999984e-13	1e-15	0.0	0.0	0.0	0.997	
4.569999999999984e-13	1e-15	0.0	0.0	0.0	0.998	
4.579999999999984e-13	1e-15	0.0	0.0	0.0	1.000	
4.589999999999983e-13	1e-15	0.0	0.0	0.0	1.001	
4.599999999999983e-13	1e-15	0.0	0.0	0.0	1.002	
4.609999999999983e-13	1e-15	0.0	0.0	0.0	1.004	
4.619999999999983e-13	1e-15	0.0	0.0	0.0	1.005	
4.629999999999983e-13	1e-15	0.0	0.0	0.0	1.007	
4.639999999999983e-13	1e-15	0.0	0.0	0.0	1.008	
4.649999999999983e-13	1e-15	0.0	0.0	0.0	1.010	
4.659999999999983e-13	1e-15	0.0	0.0	0.0	1.011	
4.669999999999983e-13	1e-15	0.0	0.0	0.0	1.013	
4.679999999999983e-13	1e-15	0.0	0.0	0.0	1.014	
4.689999999999983e-13	1e-15	0.0	0.0	0.0	1.015	
4.699999999999983e-13	1e-15	0.0	0.0	0.0	1.017	
4.709999999999983e-13	1e-15	0.0	0.0	0.0	1.018	
4.719999999999983e-13	1e-15	0.0	0.0	0.0	1.020	
4.729999999999983e-13	1e-15	0.0	0.0	0.0	1.021	
4.739999999999983e-13	1e-15	0.0	0.0	0.0	1.023	
4.749999999999983e-13	1e-15	0.0	0.0	0.0	1.024	
4.759999999999983e-13	1e-15	0.0	0.0	0.0	1.026	
4.769999999999983e-13	1e-15	0.0	0.0	0.0	1.027	
4.779999999999983e-13	1e-15	0.0	0.0	0.0	1.029	
4.789999999999983e-13	1e-15	0.0	0.0	0.0	1.030	
4.799999999999983e-13	1e-15	0.0	0.0	0.0	1.031	
4.809999999999983e-13	1e-15	0.0	0.0	0.0	1.033	
4.819999999999982e-13	1e-15	0.0	0.0	0.0	1.034	
4.829999999999982e-13	1e-15	0.0	0.0	0.0	1.036	
4.839999999999982e-13	1e-15	0.0	0.0	0.0	1.037	
4.849999999999982e-13	1e-15	0.0	0.0	0.0	1.039	
4.859999999999982e-13	1e-15	0.0	0.0	0.0	1.040	
4.869999999999982e-13	1e-15	0.0	0.0	0.0	1.042	
4.879999999999982e-13	1e-15	0.0	0.0	0.0	1.043	
4.889999999999982e-13	1e-15	0.0	0.0	0.0	1.044	
4.899999999999982e-13	1e-15	0.0	0.0	0.0	1.046	
4.909999999999982e-13	1e-15	0.0	0.0	0.0	1.047	
4.919999999999982e-13	1e-15	0.0	0.0	0.0	1.049	
4.929999999999982e-13	1e-15	0.0	0.0	0.0	1.050	
4.939999999999982e-13	1e-15	0.0	0.0	0.0	1.052	
4.949999999999982e-13	1e-15	0.0	0.0	0.0	1.053	
4.959999999999982e-13	1e-15	0.0	0.0	0.0	1.055	
4.969999999999982e-13	1e-15	0.0	0.0	0.0	1.056	
4.979999999999982e-13	1e-15	0.0	0.0	0.0	1.058	
4.989999999999982e-13	1e-15	0.0	0.0	0.0	1.059	
4.999999999999982e-13	1e-15	0.0	0.0	0.0	1.062	
5.009999999999982e-13	1e-15	0.0	0.0	0.0	1.062	
5.019999999999982e-13	1e-15	0.0	0.0	0.0	1.063	
5.029999999999982e-13	1e-15	0.0	0.0	0.0	1.065	
5.039999999999982e-13	1e-15	0.0	0.0	0.0	1.066	
5.049999999999982e-13	1e-15	0.0	0.0	0.0	1.068	
5.059999999999981e-13	1e-15	0.0	0.0	0.0	1.069	
5.069999999999981e-13	1e-15	0.0	0.0	0.0	1.071	
5.079999999999981e-13	1e-15	0.0	0.0	0.0	1.072	
5.089999999999981e-13	1e-15	0.0	0.0	0.0	1.074	
5.099999999999981e-13	1e-15	0.0	0.0	0.0	1.075	
5.109999999999981e-13	1e-15	0.0	0.0	0.0	1.076	
5.119999999999981e-13	1e-15	0.0	0.0	0.0	1.078	
5.129999999999981e-13	1e-15	0.0	0.0	0.0	1.079	
5.139999999999981e-13	1e-15	0.0	0.0	0.0	1.081	
5.149999999999981e-13	1e-15	0.0	0.0	0.0	1.082	
5.159999999999981e-13	1e-15	0.0	0.0	0.0	1.084	
5.169999999999981e-13	1e-15	0.0	0.0	0.0	1.085	
5.179999999999981e-13	1e-15	0.0	0.0	0.0	1.087	
5.189999999999981e-13	1e-15	0.0	0.0	0.0	1.088	
5.199999999999981e-13	1e-15	0.0	0.0	0.0	1.089	
5.209999999999981e-13	1e-15	0.0	0.0	0.0	1.091	
5.219999999999981e-13	1e-15	0.0	0.0	0.0	1.092	
5.229999999999981e-13	1e-15	0.0	0.0	0.0	1.094	
5.239999999999981e-13	1e-15	0.0	0.0	0.0	1.095	
5.249999999999981e-13	1e-15	0.0	0.0	0.0	1.097	
5.259999999999981e-13	1e-15	0.0	0.0	0.0	1.098	
5.269999999999981e-13	1e-15	0.0	0.0	0.0	1.100	
5.279999999999981e-13	1e-15	0.0	0.0	0.0	1.101	
5.28999999999998e-13	1e-15	0.0	0.0	0.0	1.103	
5.29999999999998e-13	1e-15	0.0	0.0	0.0	1.104	
5.30999999999998e-13	1e-15	0.0	0.0	0.0	1.105	
5.31999999999998e-13	1e-15	0.0	0.0	0.0	1.107	
5.32999999999998e-13	1e-15	0.0	0.0	0.0	1.108	
5.33999999999998e-13	1e-15	0.0	0.0	0.0	1.110	
5.34999999999998e-13	1e-15	0.0	0.0	0.0	1.111	
5.35999999999998e-13	1e-15	0.0	0.0	0.0	1.113	
5.36999999999998e-13	1e-15	0.0	0.0	0.0	1.114	
5.37999999999998e-13	1e-15	0.0	0.0	0.0	1.116	
5.38999999999998e-13	1e-15	0.0	0.0	0.0	1.117	
5.39999999999998e-13	1e-15	0.0	0.0	0.0	1.118	
5.40999999999998e-13	1e-15	0.0	0.0	0.0	1.120	
5.41999999999998e-13	1e-15	0.0	0.0	0.0	1.121	
5.42999999999998e-13	1e-15	0.0	0.0	0.0	1.123	
5.43999999999998e-13	1e-15	0.0	0.0	0.0	1.124	
5.44999999999998e-13	1e-15	0.0	0.0	0.0	1.126	
5.45999999999998e-13	1e-15	0.0	0.0	0.0	1.127	
5.46999999999998e-13	1e-15	0.0	0.0	0.0	1.129	
5.47999999999998e-13	1e-15	0.0	0.0	0.0	1.130	
5.48999999999998e-13	1e-15	0.0	0.0	0.0	1.132	
5.49999999999998e-13	1e-15	0.0	0.0	0.0	1.133	
5.50999999999998e-13	1e-15	0.0	0.0	0.0	1.134	
5.51999999999998e-13	1e-15	0.0	0.0	0.0	1.136	
5.529999999999979e-13	1e-15	0.0	0.0	0.0	1.137	
5.539999999999979e-13	1e-15	0.0	0.0	0.0	1.139	
5.549999999999979e-13	1e-15	0.0	0.0	0.0	1.140	
5.559999999999979e-13	1e-15	0.0	0.0	0.0	1.142	
5.569999999999979e-13	1e-15	0.0	0.0	0.0	1.143	
5.579999999999979e-13	1e-15	0.0	0.0	0.0	1.145	
5.589999999999979e-13	1e-15	0.0	0.0	0.0	1.146	
5.599999999999979e-13	1e-15	0.0	0.0	0.0	1.147	
5.609999999999979e-13	1e-15	0.0	0.0	0.0	1.149	
5.619999999999979e-13	1e-15	0.0	0.0	0.0	1.150	
5.629999999999979e-13	1e-15	0.0	0.0	0.0	1.152	
5.639999999999979e-13	1e-15	0.0	0.0	0.0	1.153	
5.649999999999979e-13	1e-15	0.0	0.0	0.0	1.155	
5.659999999999979e-13	1e-15	0.0	0.0	0.0	1.156	
5.669999999999979e-13	1e-15	0.0	0.0	0.0	1.158	
5.679999999999979e-13	1e-15	0.0	0.0	0.0	1.159	
5.689999999999979e-13	1e-15	0.0	0.0	0.0	1.161	
5.699999999999979e-13	1e-15	0.0	0.0	0.0	1.162	
5.709999999999979e-13	1e-15	0.0	0.0	0.0	1.163	
5.719999999999979e-13	1e-15	0.0	0.0	0.0	1.165	
5.729999999999979e-13	1e-15	0.0	0.0	0.0	1.166	
5.739999999999979e-13	1e-15	0.0	0.0	0.0	1.168	
5.749999999999979e-13	1e-15	0.0	0.0	0.0	1.169	
5.759999999999978e-13	1e-15	0.0	0.0	0.0	1.171	
5.769999999999978e-13	1e-15	0.0	0.0	0.0	1.172	
5.779999999999978e-13	1e-15	0.0	0.0	0.0	1.174	
5.789999999999978e-13	1e-15	0.0	0.0	0.0	1.175	
5.799999999999978e-13	1e-15	0.0	0.0	0.0	1.176	
5.809999999999978e-13	1e-15	0.0	0.0	0.0	1.178	
5.819999999999978e-13	1e-15	0.0	0.0	0.0	1.179	
5.829999999999978e-13	1e-15	0.0	0.0	0.0	1.181	
5.839999999999978e-13	1e-15	0.0	0.0	0.0	1.182	
5.849999999999978e-13	1e-15	0.0	0.0	0.0	1.184	
5.859999999999978e-13	1e-15	0.0	0.0	0.0	1.185	
5.869999999999978e-13	1e-15	0.0	0.0	0.0	1.187	
5.879999999999978e-13	1e-15	0.0	0.0	0.0	1.188	
5.889999999999978e-13	1e-15	0.0	0.0	0.0	1.190	
5.899999999999978e-13	1e-15	0.0	0.0	0.0	1.191	
5.909999999999978e-13	1e-15	0.0	0.0	0.0	1.192	
5.919999999999978e-13	1e-15	0.0	0.0	0.0	1.194	
5.929999999999978e-13	1e-15	0.0	0.0	0.0	1.195	
5.939999999999978e-13	1e-15	0.0	0.0	0.0	1.197	
5.949999999999978e-13	1e-15	0.0	0.0	0.0	1.198	
5.959999999999978e-13	1e-15	0.0	0.0	0.0	1.200	
5.969999999999978e-13	1e-15	0.0	0.0	0.0	1.201	
5.979999999999978e-13	1e-15	0.0	0.0	0.0	1.203	
5.989999999999978e-13	1e-15	0.0	0.0	0.0	1.204	
5.999999999999977e-13	1e-15	0.0	0.0	0.0	1.207	
6.009999999999977e-13	1e-15	0.0	0.0	0.0	1.207	
6.019999999999977e-13	1e-15	0.0	0.0	0.0	1.208	
6.029999999999977e-13	1e-15	0.0	0.0	0.0	1.210	
6.039999999999977e-13	1e-15	0.0	0.0	0.0	1.211	
6.049999999999977e-13	1e-15	0.0	0.0	0.0	1.213	
6.059999999999977e-13	1e-15	0.0	0.0	0.0	1.214	
6.069999999999977e-13	1e-15	0.0	0.0	0.0	1.216	
6.079999999999977e-13	1e-15	0.0	0.0	0.0	1.217	
6.089999999999977e-13	1e-15	0.0	0.0	0.0	1.219	
6.099999999999977e-13	1e-15	0.0	0.0	0.0	1.220	
6.109999999999977e-13	1e-15	0.0	0.0	0.0	1.222	
6.119999999999977e-13	1e-15	0.0	0.0	0.0	1.223	
6.129999999999977e-13	1e-15	0.0	0.0	0.0	1.224	
6.139999999999977e-13	1e-15	0.0	0.0	0.0	1.226	
6.149999999999977e-13	1e-15	0.0	0.0	0.0	1.227	
6.159999999999977e-13	1e-15	0.0	0.0	0.0	1.229	
6.169999999999977e-13	1e-15	0.0	0.0	0.0	1.230	
6.179999999999977e-13	1e-15	0.0	0.0	0.0	1.232	
6.189999999999977e-13	1e-15	0.0	0.0	0.0	1.233	
6.199999999999977e-13	1e-15	0.0	0.0	0.0	1.235	
6.209999999999977e-13	1e-15	0.0	0.0	0.0	1.236	
6.219999999999977e-13	1e-15	0.0	0.0	0.0	1.237	
6.229999999999976e-13	1e-15	0.0	0.0	0.0	1.239	
6.239999999999976e-13	1e-15	0.0	0.0	0.0	1.240	
6.249999999999976e-13	1e-15	0.0	0.0	0.0	1.242	
6.259999999999976e-13	1e-15	0.0	0.0	0.0	1.243	
6.269999999999976e-13	1e-15	0.0	0.0	0.0	1.245	
6.279999999999976e-13	1e-15	0.0	0.0	0.0	1.246	
6.289999999999976e-13	1e-15	0.0	0.0	0.0	1.248	
6.299999999999976e-13	1e-15	0.0	0.0	0.0	1.249	
6.309999999999976e-13	1e-15	0.0	0.0	0.0	1.251	
6.319999999999976e-13	1e-15	0.0	0.0	0.0	1.252	
6.329999999999976e-13	1e-15	0.0	0.0	0.0	1.253	
6.339999999999976e-13	1e-15	0.0	0.0	0.0	1.255	
6.349999999999976e-13	1e-15	0.0	0.0	0.0	1.256	
6.359999999999976e-13	1e-15	0.0	0.0	0.0	1.258	
6.369999999999976e-13	1e-15	0.0	0.0	0.0	1.259	
6.379999999999976e-13	1e-15	0.0	0.0	0.0	1.261	
6.389999999999976e-13	1e-15	0.0	0.0	0.0	1.262	
6.399999999999976e-13	1e-15	0.0	0.0	0.0	1.264	
6.409999999999976e-13	1e-15	0.0	0.0	0.0	1.265	
6.419999999999976e-13	1e-15	0.0	0.0	0.0	1.266	
6.429999999999976e-13	1e-15	0.0	0.0	0.0	1.268	
6.439999999999976e-13	1e-15	0.0	0.0	0.0	1.269	
6.449999999999976e-13	1e-15	0.0	0.0	0.0	1.271	
6.459999999999976e-13	1e-15	0.0	0.0	0.0	1.272	
6.469999999999975e-13	1e-15	0.0	0.0	0.0	1.274	
6.479999999999975e-13	1e-15	0.0	0.0	0.0	1.275	
6.489999999999975e-13	1e-15	0.0	0.0	0.0	1.277	
6.499999999999975e-13	1e-15	0.0	0.0	0.0	1.278	
6.509999999999975e-13	1e-15	0.0	0.0	0.0	1.280	
6.519999999999975e-13	1e-15	0.0	0.0	0.0	1.281	
6.529999999999975e-13	1e-15	0.0	0.0	0.0	1.282	
6.539999999999975e-13	1e-15	0.0	0.0	0.0	1.284	
6.549999999999975e-13	1e-15	0.0	0.0	0.0	1.285	
6.559999999999975e-13	1e-15	0.0	0.0	0.0	1.287	
6.569999999999975e-13	1e-15	0.0	0.0	0.0	1.288	
6.579999999999975e-13	1e-15	0.0	0.0	0.0	1.290	
6.589999999999975e-13	1e-15	0.0	0.0	0.0	1.291	
6.599999999999975e-13	1e-15	0.0	0.0	0.0	1.293	
6.609999999999975e-13	1e-15	0.0	0.0	0.0	1.294	
6.619999999999975e-13	1e-15	0.0	0.0	0.0	1.295	
6.629999999999975e-13	1e-15	0.0	0.0	0.0	1.297	
6.639999999999975e-13	1e-15	0.0	0.0	0.0	1.298	
6.649999999999975e-13	1e-15	0.0	0.0	0.0	1.300	
6.659999999999975e-13	1e-15	0.0	0.0	0.0	1.301	
6.669999999999975e-13	1e-15	0.0	0.0	0.0	1.303	
6.679999999999975e-13	1e-15	0.0	0.0	0.0	1.304	
6.689999999999975e-13	1e-15	0.0	0.0	0.0	1.306	
6.699999999999974e-13	1e-15	0.0	0.0	0.0	1.307	
6.709999999999974e-13	1e-15	0.0	0.0	0.0	1.308	
6.719999999999974e-13	1e-15	0.0	0.0	0.0	1.310	
6.729999999999974e-13	1e-15	0.0	0.0	0.0	1.311	
6.739999999999974e-13	1e-15	0.0	0.0	0.0	1.313	
6.749999999999974e-13	1e-15	0.0	0.0	0.0	1.314	
6.759999999999974e-13	1e-15	0.0	0.0	0.0	1.316	
6.769999999999974e-13	1e-15	0.0	0.0	0.0	1.317	
6.779999999999974e-13	1e-15	0.0	0.0	0.0	1.319	
6.789999999999974e-13	1e-15	0.0	0.0	0.0	1.320	
6.799999999999974e-13	1e-15	0.0	0.0	0.0	1.322	
6.809999999999974e-13	1e-15	0.0	0.0	0.0	1.323	
6.819999999999974e-13	1e-15	0.0	0.0	0.0	1.324	
6.829999999999974e-13	1e-15	0.0	0.0	0.0	1.326	
6.839999999999974e-13	1e-15	0.0	0.0	0.0	1.327	
6.849999999999974e-13	1e-15	0.0	0.0	0.0	1.329	
6.859999999999974e-13	1e-15	0.0	0.0	0.0	1.330	
6.869999999999974e-13	1e-15	0.0	0.0	0.0	1.332	
6.879999999999974e-13	1e-15	0.0	0.0	0.0	1.333	
6.889999999999974e-13	1e-15	0.0	0.0	0.0	1.335	
6.899999999999974e-13	1e-15	0.0	0.0	0.0	1.336	
6.909999999999974e-13	1e-15	0.0	0.0	0.0	1.337	
6.919999999999974e-13	1e-15	0.0	0.0	0.0	1.339	
6.929999999999974e-13	1e-15	0.0	0.0	0.0	1.340	
6.939999999999973e-13	1e-15	0.0	0.0	0.0	1.342	
6.949999999999973e-13	1e-15	0.0	0.0	0.0	1.343	
6.959999999999973e-13	1e-15	0.0	0.0	0.0	1.345	
6.969999999999973e-13	1e-15	0.0	0.0	0.0	1.346	
6.979999999999973e-13	1e-15	0.0	0.0	0.0	1.348	
6.989999999999973e-13	1e-15	0.0	0.0	0.0	1.349	
6.999999999999973e-13	1e-15	0.0	0.0	0.0	1.352	
7.009999999999973e-13	1e-15	0.0	0.0	0.0	1.352	
7.019999999999973e-13	1e-15	0.0	0.0	0.0	1.354	
7.029999999999973e-13	1e-15	0.0	0.0	0.0	1.355	
7.039999999999973e-13	1e-15	0.0	0.0	0.0	1.356	
7.049999999999973e-13	1e-15	0.0	0.0	0.0	1.358	
7.059999999999973e-13	1e-15	0.0	0.0	0.0	1.359	
7.069999999999973e-13	1e-15	0.0	0.0	0.0	1.361	
7.079999999999973e-13	1e-15	0.0	0.0	0.0	1.362	
7.089999999999973e-13	1e-15	0.0	0.0	0.0	1.364	
7.099999999999973e-13	1e-15	0.0	0.0	0.0	1.365	
7.109999999999973e-13	1e-15	0.0	0.0	0.0	1.367	
7.119999999999973e-13	1e-15	0.0	0.0	0.0	1.368	
7.129999999999973e-13	1e-15	0.0	0.0	0.0	1.369	
7.139999999999973e-13	1e-15	0.0	0.0	0.0	1.371	
7.149999999999973e-13	1e-15	0.0	0.0	0.0	1.372	
7.159999999999973e-13	1e-15	0.0	0.0	0.0	1.374	
7.169999999999972e-13	1e-15	0.0	0.0	0.0	1.375	
7.179999999999972e-13	1e-15	0.0	0.0	0.0	1.377	
7.189999999999972e-13	1e-15	0.0	0.0	0.0	1.378	
7.199999999999972e-13	1e-15	0.0	0.0	0.0	1.380	
7.209999999999972e-13	1e-15	0.0	0.0	0.0	1.381	
7.219999999999972e-13	1e-15	0.0	0.0	0.0	1.382	
7.229999999999972e-13	1e-15	0.0	0.0	0.0	1.384	
7.239999999999972e-13	1e-15	0.0	0.0	0.0	1.385	